r 0.100303 4 3 tcp 40 ------- 0 4.0 6.0 0 0
r 0.100306 4 3 tcp 40 ------- 0 4.1 7.0 0 1
r 0.10031 4 3 tcp 40 ------- 0 4.2 8.0 0 2
r 0.100313 4 3 tcp 40 ------- 0 4.3 9.0 0 3
r 0.100316 4 3 tcp 40 ------- 0 4.4 10.0 0 4
r 0.100319 4 3 tcp 40 ------- 0 4.5 11.0 0 5
r 0.100322 4 3 tcp 40 ------- 0 4.6 12.0 0 6
r 0.100326 4 3 tcp 40 ------- 0 4.7 13.0 0 7
r 0.100329 4 3 tcp 40 ------- 0 4.8 14.0 0 8
r 0.100332 4 3 tcp 40 ------- 0 4.9 15.0 0 9
r 0.100606 3 2 tcp 40 ------- 0 4.0 6.0 0 0
r 0.10061 3 2 tcp 40 ------- 0 4.1 7.0 0 1
r 0.100613 3 2 tcp 40 ------- 0 4.2 8.0 0 2
r 0.100616 3 2 tcp 40 ------- 0 4.3 9.0 0 3
r 0.100619 3 2 tcp 40 ------- 0 4.4 10.0 0 4
r 0.100622 3 2 tcp 40 ------- 0 4.5 11.0 0 5
r 0.100626 3 2 tcp 40 ------- 0 4.6 12.0 0 6
r 0.100629 3 2 tcp 40 ------- 0 4.7 13.0 0 7
r 0.100632 3 2 tcp 40 ------- 0 4.8 14.0 0 8
r 0.100635 3 2 tcp 40 ------- 0 4.9 15.0 0 9
r 0.100814 2 1 tcp 40 ------- 0 4.0 6.0 0 0
r 0.100822 2 1 tcp 40 ------- 0 4.1 7.0 0 1
r 0.10083 2 1 tcp 40 ------- 0 4.2 8.0 0 2
r 0.100838 2 1 tcp 40 ------- 0 4.3 9.0 0 3
r 0.100846 2 1 tcp 40 ------- 0 4.4 10.0 0 4
r 0.100854 2 1 tcp 40 ------- 0 4.5 11.0 0 5
r 0.100862 2 1 tcp 40 ------- 0 4.6 12.0 0 6
r 0.10087 2 1 tcp 40 ------- 0 4.7 13.0 0 7
r 0.100878 2 1 tcp 40 ------- 0 4.8 14.0 0 8
r 0.100886 2 1 tcp 40 ------- 0 4.9 15.0 0 9
r 0.101046 1 0 tcp 40 ------- 0 4.0 6.0 0 0
r 0.101078 1 0 tcp 40 ------- 0 4.1 7.0 0 1
r 0.10111 1 0 tcp 40 ------- 0 4.2 8.0 0 2
r 0.101142 1 0 tcp 40 ------- 0 4.3 9.0 0 3
r 0.101174 1 0 tcp 40 ------- 0 4.4 10.0 0 4
r 0.101206 1 0 tcp 40 ------- 0 4.5 11.0 0 5
r 0.101238 1 0 tcp 40 ------- 0 4.6 12.0 0 6
r 0.10127 1 0 tcp 40 ------- 0 4.7 13.0 0 7
r 0.101302 1 0 tcp 40 ------- 0 4.8 14.0 0 8
r 0.101334 1 0 tcp 40 ------- 0 4.9 15.0 0 9
r 0.111078 0 6 tcp 40 ------- 0 4.0 6.0 0 0
r 0.11111 0 7 tcp 40 ------- 0 4.1 7.0 0 1
r 0.111142 0 8 tcp 40 ------- 0 4.2 8.0 0 2
r 0.111174 0 9 tcp 40 ------- 0 4.3 9.0 0 3
r 0.111206 0 10 tcp 40 ------- 0 4.4 10.0 0 4
r 0.111238 0 11 tcp 40 ------- 0 4.5 11.0 0 5
r 0.11127 0 12 tcp 40 ------- 0 4.6 12.0 0 6
r 0.111302 0 13 tcp 40 ------- 0 4.7 13.0 0 7
r 0.111334 0 14 tcp 40 ------- 0 4.8 14.0 0 8
r 0.111366 0 15 tcp 40 ------- 0 4.9 15.0 0 9
r 0.122552 4 3 tcp 1040 ------- 0 4.0 6.0 1 20
r 0.122635 4 3 tcp 1040 ------- 0 4.0 6.0 2 21
r 0.122718 4 3 tcp 1040 ------- 0 4.1 7.0 1 22
r 0.122802 4 3 tcp 1040 ------- 0 4.1 7.0 2 23
r 0.122885 4 3 tcp 1040 ------- 0 4.2 8.0 1 24
r 0.122935 3 2 tcp 1040 ------- 0 4.0 6.0 1 20
r 0.122968 4 3 tcp 1040 ------- 0 4.2 8.0 2 25
r 0.123018 3 2 tcp 1040 ------- 0 4.0 6.0 2 21
r 0.123051 4 3 tcp 1040 ------- 0 4.3 9.0 1 26
r 0.123102 3 2 tcp 1040 ------- 0 4.1 7.0 1 22
r 0.123134 4 3 tcp 1040 ------- 0 4.3 9.0 2 27
r 0.123185 3 2 tcp 1040 ------- 0 4.1 7.0 2 23
r 0.123218 4 3 tcp 1040 ------- 0 4.4 10.0 1 28
r 0.123268 3 2 tcp 1040 ------- 0 4.2 8.0 1 24
r 0.123301 4 3 tcp 1040 ------- 0 4.4 10.0 2 29
r 0.123343 2 1 tcp 1040 ------- 0 4.0 6.0 1 20
r 0.123351 3 2 tcp 1040 ------- 0 4.2 8.0 2 25
r 0.123384 4 3 tcp 1040 ------- 0 4.5 11.0 1 30
r 0.123434 3 2 tcp 1040 ------- 0 4.3 9.0 1 26
r 0.123467 4 3 tcp 1040 ------- 0 4.5 11.0 2 31
r 0.123518 3 2 tcp 1040 ------- 0 4.3 9.0 2 27
r 0.12355 4 3 tcp 1040 ------- 0 4.6 12.0 1 32
r 0.123551 2 1 tcp 1040 ------- 0 4.0 6.0 2 21
r 0.123601 3 2 tcp 1040 ------- 0 4.4 10.0 1 28
r 0.123634 4 3 tcp 1040 ------- 0 4.6 12.0 2 33
r 0.123684 3 2 tcp 1040 ------- 0 4.4 10.0 2 29
r 0.123717 4 3 tcp 1040 ------- 0 4.7 13.0 1 34
r 0.123759 2 1 tcp 1040 ------- 0 4.1 7.0 1 22
r 0.123767 3 2 tcp 1040 ------- 0 4.5 11.0 1 30
r 0.1238 4 3 tcp 1040 ------- 0 4.7 13.0 2 35
r 0.12385 3 2 tcp 1040 ------- 0 4.5 11.0 2 31
r 0.123883 4 3 tcp 1040 ------- 0 4.8 14.0 1 36
r 0.123934 3 2 tcp 1040 ------- 0 4.6 12.0 1 32
r 0.123966 4 3 tcp 1040 ------- 0 4.8 14.0 2 37
r 0.123967 2 1 tcp 1040 ------- 0 4.1 7.0 2 23
r 0.124017 3 2 tcp 1040 ------- 0 4.6 12.0 2 33
r 0.12405 4 3 tcp 1040 ------- 0 4.9 15.0 1 38
r 0.1241 3 2 tcp 1040 ------- 0 4.7 13.0 1 34
r 0.124133 4 3 tcp 1040 ------- 0 4.9 15.0 2 39
r 0.124175 2 1 tcp 1040 ------- 0 4.2 8.0 1 24
r 0.124183 3 2 tcp 1040 ------- 0 4.7 13.0 2 35
r 0.124266 3 2 tcp 1040 ------- 0 4.8 14.0 1 36
r 0.12435 3 2 tcp 1040 ------- 0 4.8 14.0 2 37
r 0.124375 1 0 tcp 1040 ------- 0 4.0 6.0 1 20
r 0.124383 2 1 tcp 1040 ------- 0 4.2 8.0 2 25
r 0.124433 3 2 tcp 1040 ------- 0 4.9 15.0 1 38
r 0.124516 3 2 tcp 1040 ------- 0 4.9 15.0 2 39
r 0.124591 2 1 tcp 1040 ------- 0 4.3 9.0 1 26
r 0.124799 2 1 tcp 1040 ------- 0 4.3 9.0 2 27
r 0.125007 2 1 tcp 1040 ------- 0 4.4 10.0 1 28
r 0.125207 1 0 tcp 1040 ------- 0 4.0 6.0 2 21
r 0.125215 2 1 tcp 1040 ------- 0 4.4 10.0 2 29
r 0.125423 2 1 tcp 1040 ------- 0 4.5 11.0 1 30
r 0.125631 2 1 tcp 1040 ------- 0 4.5 11.0 2 31
r 0.125839 2 1 tcp 1040 ------- 0 4.6 12.0 1 32
r 0.126039 1 0 tcp 1040 ------- 0 4.1 7.0 1 22
r 0.126047 2 1 tcp 1040 ------- 0 4.6 12.0 2 33
r 0.126255 2 1 tcp 1040 ------- 0 4.7 13.0 1 34
r 0.126463 2 1 tcp 1040 ------- 0 4.7 13.0 2 35
r 0.126671 2 1 tcp 1040 ------- 0 4.8 14.0 1 36
r 0.126871 1 0 tcp 1040 ------- 0 4.1 7.0 2 23
r 0.126879 2 1 tcp 1040 ------- 0 4.8 14.0 2 37
r 0.127087 2 1 tcp 1040 ------- 0 4.9 15.0 1 38
r 0.127295 2 1 tcp 1040 ------- 0 4.9 15.0 2 39
r 0.127703 1 0 tcp 1040 ------- 0 4.2 8.0 1 24
r 0.128535 1 0 tcp 1040 ------- 0 4.2 8.0 2 25
r 0.129367 1 0 tcp 1040 ------- 0 4.3 9.0 1 26
r 0.130199 1 0 tcp 1040 ------- 0 4.3 9.0 2 27
r 0.131031 1 0 tcp 1040 ------- 0 4.4 10.0 1 28
r 0.131863 1 0 tcp 1040 ------- 0 4.4 10.0 2 29
r 0.132695 1 0 tcp 1040 ------- 0 4.5 11.0 1 30
r 0.133527 1 0 tcp 1040 ------- 0 4.5 11.0 2 31
r 0.134359 1 0 tcp 1040 ------- 0 4.6 12.0 1 32
r 0.135191 1 0 tcp 1040 ------- 0 4.6 12.0 2 33
r 0.135207 0 6 tcp 1040 ------- 0 4.0 6.0 1 20
r 0.136023 1 0 tcp 1040 ------- 0 4.7 13.0 1 34
r 0.136039 0 6 tcp 1040 ------- 0 4.0 6.0 2 21
r 0.136855 1 0 tcp 1040 ------- 0 4.7 13.0 2 35
r 0.136871 0 7 tcp 1040 ------- 0 4.1 7.0 1 22
r 0.137687 1 0 tcp 1040 ------- 0 4.8 14.0 1 36
r 0.137703 0 7 tcp 1040 ------- 0 4.1 7.0 2 23
r 0.138519 1 0 tcp 1040 ------- 0 4.8 14.0 2 37
r 0.138535 0 8 tcp 1040 ------- 0 4.2 8.0 1 24
r 0.139351 1 0 tcp 1040 ------- 0 4.9 15.0 1 38
r 0.139367 0 8 tcp 1040 ------- 0 4.2 8.0 2 25
r 0.140183 1 0 tcp 1040 ------- 0 4.9 15.0 2 39
r 0.140199 0 9 tcp 1040 ------- 0 4.3 9.0 1 26
r 0.141031 0 9 tcp 1040 ------- 0 4.3 9.0 2 27
r 0.141863 0 10 tcp 1040 ------- 0 4.4 10.0 1 28
r 0.142695 0 10 tcp 1040 ------- 0 4.4 10.0 2 29
r 0.143527 0 11 tcp 1040 ------- 0 4.5 11.0 1 30
r 0.144359 0 11 tcp 1040 ------- 0 4.5 11.0 2 31
r 0.145191 0 12 tcp 1040 ------- 0 4.6 12.0 1 32
r 0.146023 0 12 tcp 1040 ------- 0 4.6 12.0 2 33
r 0.146681 4 3 tcp 1040 ------- 0 4.0 6.0 3 54
r 0.146764 4 3 tcp 1040 ------- 0 4.0 6.0 4 55
r 0.146855 0 13 tcp 1040 ------- 0 4.7 13.0 1 34
r 0.147064 3 2 tcp 1040 ------- 0 4.0 6.0 3 54
r 0.147147 3 2 tcp 1040 ------- 0 4.0 6.0 4 55
r 0.147472 2 1 tcp 1040 ------- 0 4.0 6.0 3 54
r 0.147513 4 3 tcp 1040 ------- 0 4.0 6.0 5 57
r 0.147596 4 3 tcp 1040 ------- 0 4.0 6.0 6 58
r 0.14768 2 1 tcp 1040 ------- 0 4.0 6.0 4 55
r 0.147687 0 13 tcp 1040 ------- 0 4.7 13.0 2 35
r 0.147896 3 2 tcp 1040 ------- 0 4.0 6.0 5 57
r 0.147979 3 2 tcp 1040 ------- 0 4.0 6.0 6 58
r 0.148304 2 1 tcp 1040 ------- 0 4.0 6.0 5 57
r 0.148345 4 3 tcp 1040 ------- 0 4.1 7.0 3 60
r 0.148428 4 3 tcp 1040 ------- 0 4.1 7.0 4 61
r 0.148504 1 0 tcp 1040 ------- 0 4.0 6.0 3 54
r 0.148512 2 1 tcp 1040 ------- 0 4.0 6.0 6 58
r 0.148519 0 14 tcp 1040 ------- 0 4.8 14.0 1 36
r 0.148728 3 2 tcp 1040 ------- 0 4.1 7.0 3 60
r 0.148811 3 2 tcp 1040 ------- 0 4.1 7.0 4 61
r 0.149136 2 1 tcp 1040 ------- 0 4.1 7.0 3 60
r 0.149177 4 3 tcp 1040 ------- 0 4.1 7.0 5 63
r 0.14926 4 3 tcp 1040 ------- 0 4.1 7.0 6 64
r 0.149336 1 0 tcp 1040 ------- 0 4.0 6.0 4 55
r 0.149344 2 1 tcp 1040 ------- 0 4.1 7.0 4 61
r 0.149351 0 14 tcp 1040 ------- 0 4.8 14.0 2 37
r 0.14956 3 2 tcp 1040 ------- 0 4.1 7.0 5 63
r 0.149643 3 2 tcp 1040 ------- 0 4.1 7.0 6 64
r 0.149968 2 1 tcp 1040 ------- 0 4.1 7.0 5 63
r 0.150009 4 3 tcp 1040 ------- 0 4.2 8.0 3 66
r 0.150092 4 3 tcp 1040 ------- 0 4.2 8.0 4 67
r 0.150168 1 0 tcp 1040 ------- 0 4.0 6.0 5 57
r 0.150176 2 1 tcp 1040 ------- 0 4.1 7.0 6 64
r 0.150183 0 15 tcp 1040 ------- 0 4.9 15.0 1 38
r 0.150392 3 2 tcp 1040 ------- 0 4.2 8.0 3 66
r 0.150475 3 2 tcp 1040 ------- 0 4.2 8.0 4 67
r 0.1508 2 1 tcp 1040 ------- 0 4.2 8.0 3 66
r 0.150841 4 3 tcp 1040 ------- 0 4.2 8.0 5 69
r 0.150924 4 3 tcp 1040 ------- 0 4.2 8.0 6 70
r 0.151 1 0 tcp 1040 ------- 0 4.0 6.0 6 58
r 0.151008 2 1 tcp 1040 ------- 0 4.2 8.0 4 67
r 0.151015 0 15 tcp 1040 ------- 0 4.9 15.0 2 39
r 0.151224 3 2 tcp 1040 ------- 0 4.2 8.0 5 69
r 0.151307 3 2 tcp 1040 ------- 0 4.2 8.0 6 70
r 0.151632 2 1 tcp 1040 ------- 0 4.2 8.0 5 69
r 0.151673 4 3 tcp 1040 ------- 0 4.3 9.0 3 72
r 0.151756 4 3 tcp 1040 ------- 0 4.3 9.0 4 73
r 0.151832 1 0 tcp 1040 ------- 0 4.1 7.0 3 60
r 0.15184 2 1 tcp 1040 ------- 0 4.2 8.0 6 70
r 0.152056 3 2 tcp 1040 ------- 0 4.3 9.0 3 72
r 0.152139 3 2 tcp 1040 ------- 0 4.3 9.0 4 73
r 0.152464 2 1 tcp 1040 ------- 0 4.3 9.0 3 72
r 0.152505 4 3 tcp 1040 ------- 0 4.3 9.0 5 74
r 0.152588 4 3 tcp 1040 ------- 0 4.3 9.0 6 75
r 0.152664 1 0 tcp 1040 ------- 0 4.1 7.0 4 61
r 0.152672 2 1 tcp 1040 ------- 0 4.3 9.0 4 73
r 0.152888 3 2 tcp 1040 ------- 0 4.3 9.0 5 74
r 0.152971 3 2 tcp 1040 ------- 0 4.3 9.0 6 75
r 0.153296 2 1 tcp 1040 ------- 0 4.3 9.0 5 74
r 0.153337 4 3 tcp 1040 ------- 0 4.4 10.0 3 76
r 0.15342 4 3 tcp 1040 ------- 0 4.4 10.0 4 77
r 0.153496 1 0 tcp 1040 ------- 0 4.1 7.0 5 63
r 0.153504 2 1 tcp 1040 ------- 0 4.3 9.0 6 75
r 0.15372 3 2 tcp 1040 ------- 0 4.4 10.0 3 76
r 0.153803 3 2 tcp 1040 ------- 0 4.4 10.0 4 77
r 0.154128 2 1 tcp 1040 ------- 0 4.4 10.0 3 76
r 0.154169 4 3 tcp 1040 ------- 0 4.4 10.0 5 78
r 0.154252 4 3 tcp 1040 ------- 0 4.4 10.0 6 79
r 0.154328 1 0 tcp 1040 ------- 0 4.1 7.0 6 64
r 0.154336 2 1 tcp 1040 ------- 0 4.4 10.0 4 77
r 0.154552 3 2 tcp 1040 ------- 0 4.4 10.0 5 78
r 0.154635 3 2 tcp 1040 ------- 0 4.4 10.0 6 79
r 0.15496 2 1 tcp 1040 ------- 0 4.4 10.0 5 78
r 0.155001 4 3 tcp 1040 ------- 0 4.5 11.0 3 80
r 0.155084 4 3 tcp 1040 ------- 0 4.5 11.0 4 81
r 0.15516 1 0 tcp 1040 ------- 0 4.2 8.0 3 66
r 0.155168 2 1 tcp 1040 ------- 0 4.4 10.0 6 79
r 0.155384 3 2 tcp 1040 ------- 0 4.5 11.0 3 80
r 0.155467 3 2 tcp 1040 ------- 0 4.5 11.0 4 81
r 0.155792 2 1 tcp 1040 ------- 0 4.5 11.0 3 80
r 0.155833 4 3 tcp 1040 ------- 0 4.5 11.0 5 82
r 0.155916 4 3 tcp 1040 ------- 0 4.5 11.0 6 83
r 0.155992 1 0 tcp 1040 ------- 0 4.2 8.0 4 67
r 0.156 2 1 tcp 1040 ------- 0 4.5 11.0 4 81
r 0.156216 3 2 tcp 1040 ------- 0 4.5 11.0 5 82
r 0.156299 3 2 tcp 1040 ------- 0 4.5 11.0 6 83
r 0.156624 2 1 tcp 1040 ------- 0 4.5 11.0 5 82
r 0.156665 4 3 tcp 1040 ------- 0 4.6 12.0 3 84
r 0.156748 4 3 tcp 1040 ------- 0 4.6 12.0 4 85
r 0.156824 1 0 tcp 1040 ------- 0 4.2 8.0 5 69
r 0.156832 2 1 tcp 1040 ------- 0 4.5 11.0 6 83
r 0.157048 3 2 tcp 1040 ------- 0 4.6 12.0 3 84
r 0.157131 3 2 tcp 1040 ------- 0 4.6 12.0 4 85
r 0.157456 2 1 tcp 1040 ------- 0 4.6 12.0 3 84
r 0.157497 4 3 tcp 1040 ------- 0 4.6 12.0 5 86
r 0.15758 4 3 tcp 1040 ------- 0 4.6 12.0 6 87
r 0.157656 1 0 tcp 1040 ------- 0 4.2 8.0 6 70
r 0.157664 2 1 tcp 1040 ------- 0 4.6 12.0 4 85
r 0.15788 3 2 tcp 1040 ------- 0 4.6 12.0 5 86
r 0.157963 3 2 tcp 1040 ------- 0 4.6 12.0 6 87
r 0.158288 2 1 tcp 1040 ------- 0 4.6 12.0 5 86
r 0.158329 4 3 tcp 1040 ------- 0 4.7 13.0 3 88
r 0.158412 4 3 tcp 1040 ------- 0 4.7 13.0 4 89
r 0.158488 1 0 tcp 1040 ------- 0 4.3 9.0 3 72
r 0.158496 2 1 tcp 1040 ------- 0 4.6 12.0 6 87
r 0.158712 3 2 tcp 1040 ------- 0 4.7 13.0 3 88
r 0.158795 3 2 tcp 1040 ------- 0 4.7 13.0 4 89
r 0.15912 2 1 tcp 1040 ------- 0 4.7 13.0 3 88
r 0.159161 4 3 tcp 1040 ------- 0 4.7 13.0 5 90
r 0.159244 4 3 tcp 1040 ------- 0 4.7 13.0 6 91
r 0.15932 1 0 tcp 1040 ------- 0 4.3 9.0 4 73
r 0.159328 2 1 tcp 1040 ------- 0 4.7 13.0 4 89
r 0.159336 0 6 tcp 1040 ------- 0 4.0 6.0 3 54
r 0.159544 3 2 tcp 1040 ------- 0 4.7 13.0 5 90
r 0.159627 3 2 tcp 1040 ------- 0 4.7 13.0 6 91
r 0.159952 2 1 tcp 1040 ------- 0 4.7 13.0 5 90
r 0.159993 4 3 tcp 1040 ------- 0 4.8 14.0 3 93
r 0.160076 4 3 tcp 1040 ------- 0 4.8 14.0 4 94
r 0.160152 1 0 tcp 1040 ------- 0 4.3 9.0 5 74
r 0.16016 2 1 tcp 1040 ------- 0 4.7 13.0 6 91
r 0.160168 0 6 tcp 1040 ------- 0 4.0 6.0 4 55
r 0.160376 3 2 tcp 1040 ------- 0 4.8 14.0 3 93
r 0.160459 3 2 tcp 1040 ------- 0 4.8 14.0 4 94
r 0.160784 2 1 tcp 1040 ------- 0 4.8 14.0 3 93
r 0.160825 4 3 tcp 1040 ------- 0 4.8 14.0 5 96
r 0.160908 4 3 tcp 1040 ------- 0 4.8 14.0 6 97
r 0.160984 1 0 tcp 1040 ------- 0 4.3 9.0 6 75
r 0.160992 2 1 tcp 1040 ------- 0 4.8 14.0 4 94
r 0.161 0 6 tcp 1040 ------- 0 4.0 6.0 5 57
r 0.161208 3 2 tcp 1040 ------- 0 4.8 14.0 5 96
r 0.161291 3 2 tcp 1040 ------- 0 4.8 14.0 6 97
r 0.161616 2 1 tcp 1040 ------- 0 4.8 14.0 5 96
r 0.161657 4 3 tcp 1040 ------- 0 4.9 15.0 3 99
r 0.16174 4 3 tcp 1040 ------- 0 4.9 15.0 4 100
r 0.161816 1 0 tcp 1040 ------- 0 4.4 10.0 3 76
r 0.161824 2 1 tcp 1040 ------- 0 4.8 14.0 6 97
r 0.161832 0 6 tcp 1040 ------- 0 4.0 6.0 6 58
r 0.16204 3 2 tcp 1040 ------- 0 4.9 15.0 3 99
r 0.162123 3 2 tcp 1040 ------- 0 4.9 15.0 4 100
r 0.162448 2 1 tcp 1040 ------- 0 4.9 15.0 3 99
r 0.162489 4 3 tcp 1040 ------- 0 4.9 15.0 5 102
r 0.162572 4 3 tcp 1040 ------- 0 4.9 15.0 6 103
r 0.162648 1 0 tcp 1040 ------- 0 4.4 10.0 4 77
r 0.162656 2 1 tcp 1040 ------- 0 4.9 15.0 4 100
r 0.162664 0 7 tcp 1040 ------- 0 4.1 7.0 3 60
r 0.162872 3 2 tcp 1040 ------- 0 4.9 15.0 5 102
r 0.162955 3 2 tcp 1040 ------- 0 4.9 15.0 6 103
r 0.16328 2 1 tcp 1040 ------- 0 4.9 15.0 5 102
r 0.16348 1 0 tcp 1040 ------- 0 4.4 10.0 5 78
r 0.163488 2 1 tcp 1040 ------- 0 4.9 15.0 6 103
r 0.163496 0 7 tcp 1040 ------- 0 4.1 7.0 4 61
r 0.164312 1 0 tcp 1040 ------- 0 4.4 10.0 6 79
r 0.164328 0 7 tcp 1040 ------- 0 4.1 7.0 5 63
r 0.165144 1 0 tcp 1040 ------- 0 4.5 11.0 3 80
r 0.16516 0 7 tcp 1040 ------- 0 4.1 7.0 6 64
r 0.165976 1 0 tcp 1040 ------- 0 4.5 11.0 4 81
r 0.165992 0 8 tcp 1040 ------- 0 4.2 8.0 3 66
r 0.166808 1 0 tcp 1040 ------- 0 4.5 11.0 5 82
r 0.166824 0 8 tcp 1040 ------- 0 4.2 8.0 4 67
r 0.16764 1 0 tcp 1040 ------- 0 4.5 11.0 6 83
r 0.167656 0 8 tcp 1040 ------- 0 4.2 8.0 5 69
r 0.168472 1 0 tcp 1040 ------- 0 4.6 12.0 3 84
r 0.168488 0 8 tcp 1040 ------- 0 4.2 8.0 6 70
r 0.169304 1 0 tcp 1040 ------- 0 4.6 12.0 4 85
r 0.16932 0 9 tcp 1040 ------- 0 4.3 9.0 3 72
r 0.170136 1 0 tcp 1040 ------- 0 4.6 12.0 5 86
r 0.170152 0 9 tcp 1040 ------- 0 4.3 9.0 4 73
r 0.17081 4 3 tcp 1040 ------- 0 4.0 6.0 7 114
r 0.170893 4 3 tcp 1040 ------- 0 4.0 6.0 8 115
r 0.170968 1 0 tcp 1040 ------- 0 4.6 12.0 6 87
r 0.170984 0 9 tcp 1040 ------- 0 4.3 9.0 5 74
r 0.171193 3 2 tcp 1040 ------- 0 4.0 6.0 7 114
r 0.171276 3 2 tcp 1040 ------- 0 4.0 6.0 8 115
r 0.171601 2 1 tcp 1040 ------- 0 4.0 6.0 7 114
r 0.171642 4 3 tcp 1040 ------- 0 4.0 6.0 9 117
r 0.171725 4 3 tcp 1040 ------- 0 4.0 6.0 10 118
r 0.1718 1 0 tcp 1040 ------- 0 4.7 13.0 3 88
r 0.171809 2 1 tcp 1040 ------- 0 4.0 6.0 8 115
r 0.171816 0 9 tcp 1040 ------- 0 4.3 9.0 6 75
r 0.172025 3 2 tcp 1040 ------- 0 4.0 6.0 9 117
r 0.172108 3 2 tcp 1040 ------- 0 4.0 6.0 10 118
r 0.172433 2 1 tcp 1040 ------- 0 4.0 6.0 9 117
r 0.172474 4 3 tcp 1040 ------- 0 4.0 6.0 11 120
r 0.172557 4 3 tcp 1040 ------- 0 4.0 6.0 12 121
r 0.172632 1 0 tcp 1040 ------- 0 4.7 13.0 4 89
r 0.172641 2 1 tcp 1040 ------- 0 4.0 6.0 10 118
r 0.172648 0 10 tcp 1040 ------- 0 4.4 10.0 3 76
r 0.172857 3 2 tcp 1040 ------- 0 4.0 6.0 11 120
r 0.17294 3 2 tcp 1040 ------- 0 4.0 6.0 12 121
r 0.173265 2 1 tcp 1040 ------- 0 4.0 6.0 11 120
r 0.173306 4 3 tcp 1040 ------- 0 4.0 6.0 13 123
r 0.173389 4 3 tcp 1040 ------- 0 4.0 6.0 14 124
r 0.173464 1 0 tcp 1040 ------- 0 4.7 13.0 5 90
r 0.173473 2 1 tcp 1040 ------- 0 4.0 6.0 12 121
r 0.17348 0 10 tcp 1040 ------- 0 4.4 10.0 4 77
r 0.173689 3 2 tcp 1040 ------- 0 4.0 6.0 13 123
r 0.173772 3 2 tcp 1040 ------- 0 4.0 6.0 14 124
r 0.174097 2 1 tcp 1040 ------- 0 4.0 6.0 13 123
r 0.174138 4 3 tcp 1040 ------- 0 4.1 7.0 7 126
r 0.174221 4 3 tcp 1040 ------- 0 4.1 7.0 8 127
r 0.174296 1 0 tcp 1040 ------- 0 4.7 13.0 6 91
r 0.174305 2 1 tcp 1040 ------- 0 4.0 6.0 14 124
r 0.174312 0 10 tcp 1040 ------- 0 4.4 10.0 5 78
r 0.174521 3 2 tcp 1040 ------- 0 4.1 7.0 7 126
r 0.174604 3 2 tcp 1040 ------- 0 4.1 7.0 8 127
r 0.174929 2 1 tcp 1040 ------- 0 4.1 7.0 7 126
r 0.17497 4 3 tcp 1040 ------- 0 4.1 7.0 9 129
r 0.175053 4 3 tcp 1040 ------- 0 4.1 7.0 10 130
r 0.175128 1 0 tcp 1040 ------- 0 4.8 14.0 3 93
r 0.175137 2 1 tcp 1040 ------- 0 4.1 7.0 8 127
r 0.175144 0 10 tcp 1040 ------- 0 4.4 10.0 6 79
r 0.175353 3 2 tcp 1040 ------- 0 4.1 7.0 9 129
r 0.175436 3 2 tcp 1040 ------- 0 4.1 7.0 10 130
r 0.175761 2 1 tcp 1040 ------- 0 4.1 7.0 9 129
r 0.175802 4 3 tcp 1040 ------- 0 4.1 7.0 11 132
r 0.175885 4 3 tcp 1040 ------- 0 4.1 7.0 12 133
r 0.17596 1 0 tcp 1040 ------- 0 4.8 14.0 4 94
r 0.175969 2 1 tcp 1040 ------- 0 4.1 7.0 10 130
r 0.175976 0 11 tcp 1040 ------- 0 4.5 11.0 3 80
r 0.176185 3 2 tcp 1040 ------- 0 4.1 7.0 11 132
r 0.176268 3 2 tcp 1040 ------- 0 4.1 7.0 12 133
r 0.176593 2 1 tcp 1040 ------- 0 4.1 7.0 11 132
r 0.176634 4 3 tcp 1040 ------- 0 4.1 7.0 13 135
r 0.176717 4 3 tcp 1040 ------- 0 4.1 7.0 14 136
r 0.176792 1 0 tcp 1040 ------- 0 4.8 14.0 5 96
r 0.176801 2 1 tcp 1040 ------- 0 4.1 7.0 12 133
r 0.176808 0 11 tcp 1040 ------- 0 4.5 11.0 4 81
r 0.177017 3 2 tcp 1040 ------- 0 4.1 7.0 13 135
r 0.1771 3 2 tcp 1040 ------- 0 4.1 7.0 14 136
r 0.177425 2 1 tcp 1040 ------- 0 4.1 7.0 13 135
r 0.177466 4 3 tcp 1040 ------- 0 4.2 8.0 7 138
r 0.177549 4 3 tcp 1040 ------- 0 4.2 8.0 8 139
r 0.177624 1 0 tcp 1040 ------- 0 4.8 14.0 6 97
r 0.177633 2 1 tcp 1040 ------- 0 4.1 7.0 14 136
r 0.17764 0 11 tcp 1040 ------- 0 4.5 11.0 5 82
r 0.177849 3 2 tcp 1040 ------- 0 4.2 8.0 7 138
r 0.177932 3 2 tcp 1040 ------- 0 4.2 8.0 8 139
r 0.178257 2 1 tcp 1040 ------- 0 4.2 8.0 7 138
r 0.178298 4 3 tcp 1040 ------- 0 4.2 8.0 9 141
r 0.178381 4 3 tcp 1040 ------- 0 4.2 8.0 10 142
r 0.178456 1 0 tcp 1040 ------- 0 4.9 15.0 3 99
r 0.178465 2 1 tcp 1040 ------- 0 4.2 8.0 8 139
r 0.178472 0 11 tcp 1040 ------- 0 4.5 11.0 6 83
r 0.178681 3 2 tcp 1040 ------- 0 4.2 8.0 9 141
r 0.178764 3 2 tcp 1040 ------- 0 4.2 8.0 10 142
r 0.179089 2 1 tcp 1040 ------- 0 4.2 8.0 9 141
r 0.17913 4 3 tcp 1040 ------- 0 4.2 8.0 11 144
r 0.179213 4 3 tcp 1040 ------- 0 4.2 8.0 12 145
r 0.179288 1 0 tcp 1040 ------- 0 4.9 15.0 4 100
r 0.179297 2 1 tcp 1040 ------- 0 4.2 8.0 10 142
r 0.179304 0 12 tcp 1040 ------- 0 4.6 12.0 3 84
r 0.179513 3 2 tcp 1040 ------- 0 4.2 8.0 11 144
r 0.179596 3 2 tcp 1040 ------- 0 4.2 8.0 12 145
r 0.179921 2 1 tcp 1040 ------- 0 4.2 8.0 11 144
r 0.179962 4 3 tcp 1040 ------- 0 4.2 8.0 13 147
r 0.180045 4 3 tcp 1040 ------- 0 4.2 8.0 14 148
r 0.18012 1 0 tcp 1040 ------- 0 4.9 15.0 5 102
r 0.180129 2 1 tcp 1040 ------- 0 4.2 8.0 12 145
r 0.180136 0 12 tcp 1040 ------- 0 4.6 12.0 4 85
r 0.180345 3 2 tcp 1040 ------- 0 4.2 8.0 13 147
r 0.180428 3 2 tcp 1040 ------- 0 4.2 8.0 14 148
r 0.180753 2 1 tcp 1040 ------- 0 4.2 8.0 13 147
r 0.180794 4 3 tcp 1040 ------- 0 4.3 9.0 7 150
r 0.180877 4 3 tcp 1040 ------- 0 4.3 9.0 8 151
r 0.180952 1 0 tcp 1040 ------- 0 4.9 15.0 6 103
r 0.180961 2 1 tcp 1040 ------- 0 4.2 8.0 14 148
r 0.180968 0 12 tcp 1040 ------- 0 4.6 12.0 5 86
r 0.181177 3 2 tcp 1040 ------- 0 4.3 9.0 7 150
r 0.18126 3 2 tcp 1040 ------- 0 4.3 9.0 8 151
r 0.181585 2 1 tcp 1040 ------- 0 4.3 9.0 7 150
r 0.181626 4 3 tcp 1040 ------- 0 4.3 9.0 9 153
r 0.181709 4 3 tcp 1040 ------- 0 4.3 9.0 10 154
r 0.181784 1 0 tcp 1040 ------- 0 4.0 6.0 7 114
r 0.181793 2 1 tcp 1040 ------- 0 4.3 9.0 8 151
r 0.1818 0 12 tcp 1040 ------- 0 4.6 12.0 6 87
r 0.182009 3 2 tcp 1040 ------- 0 4.3 9.0 9 153
r 0.182092 3 2 tcp 1040 ------- 0 4.3 9.0 10 154
r 0.182417 2 1 tcp 1040 ------- 0 4.3 9.0 9 153
r 0.182458 4 3 tcp 1040 ------- 0 4.3 9.0 11 156
r 0.182541 4 3 tcp 1040 ------- 0 4.3 9.0 12 157
r 0.182616 1 0 tcp 1040 ------- 0 4.0 6.0 8 115
r 0.182625 2 1 tcp 1040 ------- 0 4.3 9.0 10 154
r 0.182632 0 13 tcp 1040 ------- 0 4.7 13.0 3 88
r 0.182841 3 2 tcp 1040 ------- 0 4.3 9.0 11 156
r 0.182924 3 2 tcp 1040 ------- 0 4.3 9.0 12 157
r 0.183249 2 1 tcp 1040 ------- 0 4.3 9.0 11 156
r 0.18329 4 3 tcp 1040 ------- 0 4.3 9.0 13 159
r 0.183373 4 3 tcp 1040 ------- 0 4.3 9.0 14 160
r 0.183448 1 0 tcp 1040 ------- 0 4.0 6.0 9 117
r 0.183457 2 1 tcp 1040 ------- 0 4.3 9.0 12 157
r 0.183464 0 13 tcp 1040 ------- 0 4.7 13.0 4 89
r 0.183673 3 2 tcp 1040 ------- 0 4.3 9.0 13 159
r 0.183756 3 2 tcp 1040 ------- 0 4.3 9.0 14 160
r 0.184081 2 1 tcp 1040 ------- 0 4.3 9.0 13 159
r 0.184122 4 3 tcp 1040 ------- 0 4.4 10.0 7 162
r 0.184205 4 3 tcp 1040 ------- 0 4.4 10.0 8 163
r 0.18428 1 0 tcp 1040 ------- 0 4.0 6.0 10 118
r 0.184289 2 1 tcp 1040 ------- 0 4.3 9.0 14 160
r 0.184296 0 13 tcp 1040 ------- 0 4.7 13.0 5 90
r 0.184505 3 2 tcp 1040 ------- 0 4.4 10.0 7 162
r 0.184588 3 2 tcp 1040 ------- 0 4.4 10.0 8 163
r 0.184913 2 1 tcp 1040 ------- 0 4.4 10.0 7 162
r 0.184954 4 3 tcp 1040 ------- 0 4.4 10.0 9 165
r 0.185037 4 3 tcp 1040 ------- 0 4.4 10.0 10 166
r 0.185112 1 0 tcp 1040 ------- 0 4.0 6.0 11 120
r 0.185121 2 1 tcp 1040 ------- 0 4.4 10.0 8 163
r 0.185128 0 13 tcp 1040 ------- 0 4.7 13.0 6 91
r 0.185337 3 2 tcp 1040 ------- 0 4.4 10.0 9 165
r 0.18542 3 2 tcp 1040 ------- 0 4.4 10.0 10 166
r 0.185745 2 1 tcp 1040 ------- 0 4.4 10.0 9 165
r 0.185786 4 3 tcp 1040 ------- 0 4.4 10.0 11 168
r 0.185869 4 3 tcp 1040 ------- 0 4.4 10.0 12 169
r 0.185944 1 0 tcp 1040 ------- 0 4.0 6.0 12 121
r 0.185953 2 1 tcp 1040 ------- 0 4.4 10.0 10 166
r 0.18596 0 14 tcp 1040 ------- 0 4.8 14.0 3 93
r 0.186169 3 2 tcp 1040 ------- 0 4.4 10.0 11 168
r 0.186252 3 2 tcp 1040 ------- 0 4.4 10.0 12 169
r 0.186577 2 1 tcp 1040 ------- 0 4.4 10.0 11 168
r 0.186618 4 3 tcp 1040 ------- 0 4.4 10.0 13 171
r 0.186701 4 3 tcp 1040 ------- 0 4.4 10.0 14 172
r 0.186776 1 0 tcp 1040 ------- 0 4.0 6.0 13 123
r 0.186785 2 1 tcp 1040 ------- 0 4.4 10.0 12 169
r 0.186792 0 14 tcp 1040 ------- 0 4.8 14.0 4 94
r 0.187001 3 2 tcp 1040 ------- 0 4.4 10.0 13 171
r 0.187084 3 2 tcp 1040 ------- 0 4.4 10.0 14 172
r 0.187409 2 1 tcp 1040 ------- 0 4.4 10.0 13 171
r 0.18745 4 3 tcp 1040 ------- 0 4.5 11.0 7 174
r 0.187533 4 3 tcp 1040 ------- 0 4.5 11.0 8 175
r 0.187608 1 0 tcp 1040 ------- 0 4.0 6.0 14 124
r 0.187617 2 1 tcp 1040 ------- 0 4.4 10.0 14 172
r 0.187624 0 14 tcp 1040 ------- 0 4.8 14.0 5 96
r 0.187833 3 2 tcp 1040 ------- 0 4.5 11.0 7 174
r 0.187916 3 2 tcp 1040 ------- 0 4.5 11.0 8 175
r 0.188241 2 1 tcp 1040 ------- 0 4.5 11.0 7 174
r 0.188282 4 3 tcp 1040 ------- 0 4.5 11.0 9 177
r 0.188365 4 3 tcp 1040 ------- 0 4.5 11.0 10 178
r 0.18844 1 0 tcp 1040 ------- 0 4.1 7.0 7 126
r 0.188449 2 1 tcp 1040 ------- 0 4.5 11.0 8 175
r 0.188456 0 14 tcp 1040 ------- 0 4.8 14.0 6 97
r 0.188665 3 2 tcp 1040 ------- 0 4.5 11.0 9 177
r 0.188748 3 2 tcp 1040 ------- 0 4.5 11.0 10 178
r 0.189073 2 1 tcp 1040 ------- 0 4.5 11.0 9 177
r 0.189114 4 3 tcp 1040 ------- 0 4.5 11.0 11 180
r 0.189197 4 3 tcp 1040 ------- 0 4.5 11.0 12 181
r 0.189272 1 0 tcp 1040 ------- 0 4.1 7.0 8 127
r 0.189281 2 1 tcp 1040 ------- 0 4.5 11.0 10 178
r 0.189288 0 15 tcp 1040 ------- 0 4.9 15.0 3 99
r 0.189497 3 2 tcp 1040 ------- 0 4.5 11.0 11 180
r 0.18958 3 2 tcp 1040 ------- 0 4.5 11.0 12 181
r 0.189905 2 1 tcp 1040 ------- 0 4.5 11.0 11 180
r 0.189946 4 3 tcp 1040 ------- 0 4.5 11.0 13 183
r 0.190029 4 3 tcp 1040 ------- 0 4.5 11.0 14 184
r 0.190104 1 0 tcp 1040 ------- 0 4.1 7.0 9 129
r 0.190113 2 1 tcp 1040 ------- 0 4.5 11.0 12 181
r 0.19012 0 15 tcp 1040 ------- 0 4.9 15.0 4 100
r 0.190329 3 2 tcp 1040 ------- 0 4.5 11.0 13 183
r 0.190412 3 2 tcp 1040 ------- 0 4.5 11.0 14 184
r 0.190737 2 1 tcp 1040 ------- 0 4.5 11.0 13 183
r 0.190778 4 3 tcp 1040 ------- 0 4.6 12.0 7 186
r 0.190861 4 3 tcp 1040 ------- 0 4.6 12.0 8 187
r 0.190936 1 0 tcp 1040 ------- 0 4.1 7.0 10 130
r 0.190945 2 1 tcp 1040 ------- 0 4.5 11.0 14 184
r 0.190952 0 15 tcp 1040 ------- 0 4.9 15.0 5 102
r 0.191161 3 2 tcp 1040 ------- 0 4.6 12.0 7 186
r 0.191244 3 2 tcp 1040 ------- 0 4.6 12.0 8 187
r 0.191569 2 1 tcp 1040 ------- 0 4.6 12.0 7 186
r 0.19161 4 3 tcp 1040 ------- 0 4.6 12.0 9 189
r 0.191693 4 3 tcp 1040 ------- 0 4.6 12.0 10 190
r 0.191768 1 0 tcp 1040 ------- 0 4.1 7.0 11 132
r 0.191777 2 1 tcp 1040 ------- 0 4.6 12.0 8 187
r 0.191784 0 15 tcp 1040 ------- 0 4.9 15.0 6 103
r 0.191993 3 2 tcp 1040 ------- 0 4.6 12.0 9 189
r 0.192076 3 2 tcp 1040 ------- 0 4.6 12.0 10 190
r 0.192401 2 1 tcp 1040 ------- 0 4.6 12.0 9 189
r 0.192442 4 3 tcp 1040 ------- 0 4.6 12.0 11 192
r 0.192525 4 3 tcp 1040 ------- 0 4.6 12.0 12 193
r 0.1926 1 0 tcp 1040 ------- 0 4.1 7.0 12 133
r 0.192609 2 1 tcp 1040 ------- 0 4.6 12.0 10 190
r 0.192616 0 6 tcp 1040 ------- 0 4.0 6.0 7 114
r 0.192825 3 2 tcp 1040 ------- 0 4.6 12.0 11 192
r 0.192908 3 2 tcp 1040 ------- 0 4.6 12.0 12 193
r 0.193233 2 1 tcp 1040 ------- 0 4.6 12.0 11 192
r 0.193274 4 3 tcp 1040 ------- 0 4.6 12.0 13 195
r 0.193357 4 3 tcp 1040 ------- 0 4.6 12.0 14 196
r 0.193432 1 0 tcp 1040 ------- 0 4.1 7.0 13 135
r 0.193441 2 1 tcp 1040 ------- 0 4.6 12.0 12 193
r 0.193448 0 6 tcp 1040 ------- 0 4.0 6.0 8 115
r 0.193657 3 2 tcp 1040 ------- 0 4.6 12.0 13 195
r 0.19374 3 2 tcp 1040 ------- 0 4.6 12.0 14 196
r 0.194065 2 1 tcp 1040 ------- 0 4.6 12.0 13 195
r 0.194106 4 3 tcp 1040 ------- 0 4.7 13.0 7 198
r 0.194189 4 3 tcp 1040 ------- 0 4.7 13.0 8 199
r 0.194264 1 0 tcp 1040 ------- 0 4.1 7.0 14 136
r 0.194273 2 1 tcp 1040 ------- 0 4.6 12.0 14 196
r 0.19428 0 6 tcp 1040 ------- 0 4.0 6.0 9 117
r 0.194489 3 2 tcp 1040 ------- 0 4.7 13.0 7 198
r 0.194572 3 2 tcp 1040 ------- 0 4.7 13.0 8 199
r 0.194897 2 1 tcp 1040 ------- 0 4.7 13.0 7 198
r 0.194938 4 3 tcp 1040 ------- 0 4.7 13.0 9 201
r 0.195021 4 3 tcp 1040 ------- 0 4.7 13.0 10 202
r 0.195096 1 0 tcp 1040 ------- 0 4.2 8.0 7 138
r 0.195105 2 1 tcp 1040 ------- 0 4.7 13.0 8 199
r 0.195112 0 6 tcp 1040 ------- 0 4.0 6.0 10 118
r 0.195321 3 2 tcp 1040 ------- 0 4.7 13.0 9 201
r 0.195404 3 2 tcp 1040 ------- 0 4.7 13.0 10 202
r 0.195729 2 1 tcp 1040 ------- 0 4.7 13.0 9 201
r 0.19577 4 3 tcp 1040 ------- 0 4.7 13.0 11 204
r 0.195853 4 3 tcp 1040 ------- 0 4.7 13.0 12 205
r 0.195928 1 0 tcp 1040 ------- 0 4.2 8.0 8 139
r 0.195937 2 1 tcp 1040 ------- 0 4.7 13.0 10 202
r 0.195944 0 6 tcp 1040 ------- 0 4.0 6.0 11 120
r 0.196153 3 2 tcp 1040 ------- 0 4.7 13.0 11 204
r 0.196236 3 2 tcp 1040 ------- 0 4.7 13.0 12 205
r 0.196561 2 1 tcp 1040 ------- 0 4.7 13.0 11 204
r 0.196602 4 3 tcp 1040 ------- 0 4.7 13.0 13 207
r 0.196685 4 3 tcp 1040 ------- 0 4.7 13.0 14 208
r 0.19676 1 0 tcp 1040 ------- 0 4.2 8.0 9 141
r 0.196769 2 1 tcp 1040 ------- 0 4.7 13.0 12 205
r 0.196776 0 6 tcp 1040 ------- 0 4.0 6.0 12 121
r 0.196985 3 2 tcp 1040 ------- 0 4.7 13.0 13 207
r 0.197068 3 2 tcp 1040 ------- 0 4.7 13.0 14 208
r 0.197393 2 1 tcp 1040 ------- 0 4.7 13.0 13 207
r 0.197434 4 3 tcp 1040 ------- 0 4.8 14.0 7 210
r 0.197517 4 3 tcp 1040 ------- 0 4.8 14.0 8 211
r 0.197592 1 0 tcp 1040 ------- 0 4.2 8.0 10 142
r 0.197601 2 1 tcp 1040 ------- 0 4.7 13.0 14 208
r 0.197608 0 6 tcp 1040 ------- 0 4.0 6.0 13 123
r 0.197817 3 2 tcp 1040 ------- 0 4.8 14.0 7 210
r 0.1979 3 2 tcp 1040 ------- 0 4.8 14.0 8 211
r 0.198225 2 1 tcp 1040 ------- 0 4.8 14.0 7 210
r 0.198266 4 3 tcp 1040 ------- 0 4.8 14.0 9 213
r 0.198349 4 3 tcp 1040 ------- 0 4.8 14.0 10 214
r 0.198424 1 0 tcp 1040 ------- 0 4.2 8.0 11 144
r 0.198433 2 1 tcp 1040 ------- 0 4.8 14.0 8 211
r 0.19844 0 6 tcp 1040 ------- 0 4.0 6.0 14 124
r 0.198649 3 2 tcp 1040 ------- 0 4.8 14.0 9 213
r 0.198732 3 2 tcp 1040 ------- 0 4.8 14.0 10 214
r 0.199057 2 1 tcp 1040 ------- 0 4.8 14.0 9 213
r 0.199098 4 3 tcp 1040 ------- 0 4.8 14.0 11 216
r 0.199181 4 3 tcp 1040 ------- 0 4.8 14.0 12 217
r 0.199256 1 0 tcp 1040 ------- 0 4.2 8.0 12 145
r 0.199265 2 1 tcp 1040 ------- 0 4.8 14.0 10 214
r 0.199272 0 7 tcp 1040 ------- 0 4.1 7.0 7 126
r 0.199481 3 2 tcp 1040 ------- 0 4.8 14.0 11 216
r 0.199564 3 2 tcp 1040 ------- 0 4.8 14.0 12 217
r 0.199889 2 1 tcp 1040 ------- 0 4.8 14.0 11 216
r 0.19993 4 3 tcp 1040 ------- 0 4.8 14.0 13 219
r 0.200013 4 3 tcp 1040 ------- 0 4.8 14.0 14 220
r 0.200088 1 0 tcp 1040 ------- 0 4.2 8.0 13 147
r 0.200097 2 1 tcp 1040 ------- 0 4.8 14.0 12 217
r 0.200104 0 7 tcp 1040 ------- 0 4.1 7.0 8 127
r 0.200313 3 2 tcp 1040 ------- 0 4.8 14.0 13 219
r 0.200396 3 2 tcp 1040 ------- 0 4.8 14.0 14 220
r 0.200721 2 1 tcp 1040 ------- 0 4.8 14.0 13 219
r 0.200762 4 3 tcp 1040 ------- 0 4.9 15.0 7 222
r 0.200845 4 3 tcp 1040 ------- 0 4.9 15.0 8 223
r 0.20092 1 0 tcp 1040 ------- 0 4.2 8.0 14 148
r 0.200929 2 1 tcp 1040 ------- 0 4.8 14.0 14 220
r 0.200936 0 7 tcp 1040 ------- 0 4.1 7.0 9 129
r 0.201145 3 2 tcp 1040 ------- 0 4.9 15.0 7 222
r 0.201228 3 2 tcp 1040 ------- 0 4.9 15.0 8 223
r 0.201553 2 1 tcp 1040 ------- 0 4.9 15.0 7 222
r 0.201594 4 3 tcp 1040 ------- 0 4.9 15.0 9 225
r 0.201677 4 3 tcp 1040 ------- 0 4.9 15.0 10 226
r 0.201752 1 0 tcp 1040 ------- 0 4.3 9.0 7 150
r 0.201761 2 1 tcp 1040 ------- 0 4.9 15.0 8 223
r 0.201768 0 7 tcp 1040 ------- 0 4.1 7.0 10 130
r 0.201977 3 2 tcp 1040 ------- 0 4.9 15.0 9 225
r 0.20206 3 2 tcp 1040 ------- 0 4.9 15.0 10 226
r 0.202385 2 1 tcp 1040 ------- 0 4.9 15.0 9 225
r 0.202426 4 3 tcp 1040 ------- 0 4.9 15.0 11 228
r 0.202509 4 3 tcp 1040 ------- 0 4.9 15.0 12 229
r 0.202584 1 0 tcp 1040 ------- 0 4.3 9.0 8 151
r 0.202593 2 1 tcp 1040 ------- 0 4.9 15.0 10 226
r 0.2026 0 7 tcp 1040 ------- 0 4.1 7.0 11 132
r 0.202809 3 2 tcp 1040 ------- 0 4.9 15.0 11 228
r 0.202892 3 2 tcp 1040 ------- 0 4.9 15.0 12 229
r 0.203217 2 1 tcp 1040 ------- 0 4.9 15.0 11 228
r 0.203258 4 3 tcp 1040 ------- 0 4.9 15.0 13 231
r 0.203341 4 3 tcp 1040 ------- 0 4.9 15.0 14 232
r 0.203416 1 0 tcp 1040 ------- 0 4.3 9.0 9 153