r 0.100303 4 3 tcp 40 ------- 0 4.0 6.0 0 0
r 0.100306 4 3 tcp 40 ------- 0 4.1 7.0 0 1
r 0.10031 4 3 tcp 40 ------- 0 4.2 8.0 0 2
r 0.100313 4 3 tcp 40 ------- 0 4.3 9.0 0 3
r 0.100316 4 3 tcp 40 ------- 0 4.4 10.0 0 4
r 0.100606 3 2 tcp 40 ------- 0 4.0 6.0 0 0
r 0.10061 3 2 tcp 40 ------- 0 4.1 7.0 0 1
r 0.100613 3 2 tcp 40 ------- 0 4.2 8.0 0 2
r 0.100616 3 2 tcp 40 ------- 0 4.3 9.0 0 3
r 0.100619 3 2 tcp 40 ------- 0 4.4 10.0 0 4
r 0.100814 2 1 tcp 40 ------- 0 4.0 6.0 0 0
r 0.100822 2 1 tcp 40 ------- 0 4.1 7.0 0 1
r 0.10083 2 1 tcp 40 ------- 0 4.2 8.0 0 2
r 0.100838 2 1 tcp 40 ------- 0 4.3 9.0 0 3
r 0.100846 2 1 tcp 40 ------- 0 4.4 10.0 0 4
r 0.101046 1 0 tcp 40 ------- 0 4.0 6.0 0 0
r 0.101078 1 0 tcp 40 ------- 0 4.1 7.0 0 1
r 0.10111 1 0 tcp 40 ------- 0 4.2 8.0 0 2
r 0.101142 1 0 tcp 40 ------- 0 4.3 9.0 0 3
r 0.101174 1 0 tcp 40 ------- 0 4.4 10.0 0 4
r 0.111078 0 6 tcp 40 ------- 0 4.0 6.0 0 0
r 0.11111 0 7 tcp 40 ------- 0 4.1 7.0 0 1
r 0.111142 0 8 tcp 40 ------- 0 4.2 8.0 0 2
r 0.111174 0 9 tcp 40 ------- 0 4.3 9.0 0 3
r 0.111206 0 10 tcp 40 ------- 0 4.4 10.0 0 4
r 0.122552 4 3 tcp 1040 ------- 0 4.0 6.0 1 10
r 0.122635 4 3 tcp 1040 ------- 0 4.0 6.0 2 11
r 0.122718 4 3 tcp 1040 ------- 0 4.1 7.0 1 12
r 0.122802 4 3 tcp 1040 ------- 0 4.1 7.0 2 13
r 0.122885 4 3 tcp 1040 ------- 0 4.2 8.0 1 14
r 0.122935 3 2 tcp 1040 ------- 0 4.0 6.0 1 10
r 0.122968 4 3 tcp 1040 ------- 0 4.2 8.0 2 15
r 0.123018 3 2 tcp 1040 ------- 0 4.0 6.0 2 11
r 0.123051 4 3 tcp 1040 ------- 0 4.3 9.0 1 16
r 0.123102 3 2 tcp 1040 ------- 0 4.1 7.0 1 12
r 0.123134 4 3 tcp 1040 ------- 0 4.3 9.0 2 17
r 0.123185 3 2 tcp 1040 ------- 0 4.1 7.0 2 13
r 0.123218 4 3 tcp 1040 ------- 0 4.4 10.0 1 18
r 0.123268 3 2 tcp 1040 ------- 0 4.2 8.0 1 14
r 0.123301 4 3 tcp 1040 ------- 0 4.4 10.0 2 19
r 0.123343 2 1 tcp 1040 ------- 0 4.0 6.0 1 10
r 0.123351 3 2 tcp 1040 ------- 0 4.2 8.0 2 15
r 0.123434 3 2 tcp 1040 ------- 0 4.3 9.0 1 16
r 0.123518 3 2 tcp 1040 ------- 0 4.3 9.0 2 17
r 0.123551 2 1 tcp 1040 ------- 0 4.0 6.0 2 11
r 0.123601 3 2 tcp 1040 ------- 0 4.4 10.0 1 18
r 0.123684 3 2 tcp 1040 ------- 0 4.4 10.0 2 19
r 0.123759 2 1 tcp 1040 ------- 0 4.1 7.0 1 12
r 0.123967 2 1 tcp 1040 ------- 0 4.1 7.0 2 13
r 0.124175 2 1 tcp 1040 ------- 0 4.2 8.0 1 14
r 0.124375 1 0 tcp 1040 ------- 0 4.0 6.0 1 10
r 0.124383 2 1 tcp 1040 ------- 0 4.2 8.0 2 15
r 0.124591 2 1 tcp 1040 ------- 0 4.3 9.0 1 16
r 0.124799 2 1 tcp 1040 ------- 0 4.3 9.0 2 17
r 0.125007 2 1 tcp 1040 ------- 0 4.4 10.0 1 18
r 0.125207 1 0 tcp 1040 ------- 0 4.0 6.0 2 11
r 0.125215 2 1 tcp 1040 ------- 0 4.4 10.0 2 19
r 0.126039 1 0 tcp 1040 ------- 0 4.1 7.0 1 12
r 0.126871 1 0 tcp 1040 ------- 0 4.1 7.0 2 13
r 0.127703 1 0 tcp 1040 ------- 0 4.2 8.0 1 14
r 0.128535 1 0 tcp 1040 ------- 0 4.2 8.0 2 15
r 0.129367 1 0 tcp 1040 ------- 0 4.3 9.0 1 16
r 0.130199 1 0 tcp 1040 ------- 0 4.3 9.0 2 17
r 0.131031 1 0 tcp 1040 ------- 0 4.4 10.0 1 18
r 0.131863 1 0 tcp 1040 ------- 0 4.4 10.0 2 19
r 0.135207 0 6 tcp 1040 ------- 0 4.0 6.0 1 10
r 0.136039 0 6 tcp 1040 ------- 0 4.0 6.0 2 11
r 0.136871 0 7 tcp 1040 ------- 0 4.1 7.0 1 12
r 0.137703 0 7 tcp 1040 ------- 0 4.1 7.0 2 13
r 0.138535 0 8 tcp 1040 ------- 0 4.2 8.0 1 14
r 0.139367 0 8 tcp 1040 ------- 0 4.2 8.0 2 15
r 0.140199 0 9 tcp 1040 ------- 0 4.3 9.0 1 16
r 0.141031 0 9 tcp 1040 ------- 0 4.3 9.0 2 17
r 0.141863 0 10 tcp 1040 ------- 0 4.4 10.0 1 18
r 0.142695 0 10 tcp 1040 ------- 0 4.4 10.0 2 19
r 0.146681 4 3 tcp 1040 ------- 0 4.0 6.0 3 30
r 0.146764 4 3 tcp 1040 ------- 0 4.0 6.0 4 31
r 0.147064 3 2 tcp 1040 ------- 0 4.0 6.0 3 30
r 0.147147 3 2 tcp 1040 ------- 0 4.0 6.0 4 31
r 0.147472 2 1 tcp 1040 ------- 0 4.0 6.0 3 30
r 0.147513 4 3 tcp 1040 ------- 0 4.0 6.0 5 32
r 0.147596 4 3 tcp 1040 ------- 0 4.0 6.0 6 33
r 0.14768 2 1 tcp 1040 ------- 0 4.0 6.0 4 31
r 0.147896 3 2 tcp 1040 ------- 0 4.0 6.0 5 32
r 0.147979 3 2 tcp 1040 ------- 0 4.0 6.0 6 33
r 0.148304 2 1 tcp 1040 ------- 0 4.0 6.0 5 32
r 0.148345 4 3 tcp 1040 ------- 0 4.1 7.0 3 34
r 0.148428 4 3 tcp 1040 ------- 0 4.1 7.0 4 35
r 0.148504 1 0 tcp 1040 ------- 0 4.0 6.0 3 30
r 0.148512 2 1 tcp 1040 ------- 0 4.0 6.0 6 33
r 0.148728 3 2 tcp 1040 ------- 0 4.1 7.0 3 34
r 0.148811 3 2 tcp 1040 ------- 0 4.1 7.0 4 35
r 0.149136 2 1 tcp 1040 ------- 0 4.1 7.0 3 34
r 0.149177 4 3 tcp 1040 ------- 0 4.1 7.0 5 36
r 0.14926 4 3 tcp 1040 ------- 0 4.1 7.0 6 37
r 0.149336 1 0 tcp 1040 ------- 0 4.0 6.0 4 31
r 0.149344 2 1 tcp 1040 ------- 0 4.1 7.0 4 35
r 0.14956 3 2 tcp 1040 ------- 0 4.1 7.0 5 36
r 0.149643 3 2 tcp 1040 ------- 0 4.1 7.0 6 37
r 0.149968 2 1 tcp 1040 ------- 0 4.1 7.0 5 36
r 0.150009 4 3 tcp 1040 ------- 0 4.2 8.0 3 38
r 0.150092 4 3 tcp 1040 ------- 0 4.2 8.0 4 39
r 0.150168 1 0 tcp 1040 ------- 0 4.0 6.0 5 32
r 0.150176 2 1 tcp 1040 ------- 0 4.1 7.0 6 37
r 0.150392 3 2 tcp 1040 ------- 0 4.2 8.0 3 38
r 0.150475 3 2 tcp 1040 ------- 0 4.2 8.0 4 39
r 0.1508 2 1 tcp 1040 ------- 0 4.2 8.0 3 38
r 0.150841 4 3 tcp 1040 ------- 0 4.2 8.0 5 40
r 0.150924 4 3 tcp 1040 ------- 0 4.2 8.0 6 41
r 0.151 1 0 tcp 1040 ------- 0 4.0 6.0 6 33
r 0.151008 2 1 tcp 1040 ------- 0 4.2 8.0 4 39
r 0.151224 3 2 tcp 1040 ------- 0 4.2 8.0 5 40
r 0.151307 3 2 tcp 1040 ------- 0 4.2 8.0 6 41
r 0.151632 2 1 tcp 1040 ------- 0 4.2 8.0 5 40
r 0.151673 4 3 tcp 1040 ------- 0 4.3 9.0 3 42
r 0.151756 4 3 tcp 1040 ------- 0 4.3 9.0 4 43
r 0.151832 1 0 tcp 1040 ------- 0 4.1 7.0 3 34
r 0.15184 2 1 tcp 1040 ------- 0 4.2 8.0 6 41
r 0.152056 3 2 tcp 1040 ------- 0 4.3 9.0 3 42
r 0.152139 3 2 tcp 1040 ------- 0 4.3 9.0 4 43
r 0.152464 2 1 tcp 1040 ------- 0 4.3 9.0 3 42
r 0.152505 4 3 tcp 1040 ------- 0 4.3 9.0 5 44
r 0.152588 4 3 tcp 1040 ------- 0 4.3 9.0 6 45
r 0.152664 1 0 tcp 1040 ------- 0 4.1 7.0 4 35
r 0.152672 2 1 tcp 1040 ------- 0 4.3 9.0 4 43
r 0.152888 3 2 tcp 1040 ------- 0 4.3 9.0 5 44
r 0.152971 3 2 tcp 1040 ------- 0 4.3 9.0 6 45
r 0.153296 2 1 tcp 1040 ------- 0 4.3 9.0 5 44
r 0.153337 4 3 tcp 1040 ------- 0 4.4 10.0 3 46
r 0.15342 4 3 tcp 1040 ------- 0 4.4 10.0 4 47
r 0.153496 1 0 tcp 1040 ------- 0 4.1 7.0 5 36
r 0.153504 2 1 tcp 1040 ------- 0 4.3 9.0 6 45
r 0.15372 3 2 tcp 1040 ------- 0 4.4 10.0 3 46
r 0.153803 3 2 tcp 1040 ------- 0 4.4 10.0 4 47
r 0.154128 2 1 tcp 1040 ------- 0 4.4 10.0 3 46
r 0.154169 4 3 tcp 1040 ------- 0 4.4 10.0 5 48
r 0.154252 4 3 tcp 1040 ------- 0 4.4 10.0 6 49
r 0.154328 1 0 tcp 1040 ------- 0 4.1 7.0 6 37
r 0.154336 2 1 tcp 1040 ------- 0 4.4 10.0 4 47
r 0.154552 3 2 tcp 1040 ------- 0 4.4 10.0 5 48
r 0.154635 3 2 tcp 1040 ------- 0 4.4 10.0 6 49
r 0.15496 2 1 tcp 1040 ------- 0 4.4 10.0 5 48
r 0.15516 1 0 tcp 1040 ------- 0 4.2 8.0 3 38
r 0.155168 2 1 tcp 1040 ------- 0 4.4 10.0 6 49
r 0.155992 1 0 tcp 1040 ------- 0 4.2 8.0 4 39
r 0.156824 1 0 tcp 1040 ------- 0 4.2 8.0 5 40
r 0.157656 1 0 tcp 1040 ------- 0 4.2 8.0 6 41
r 0.158488 1 0 tcp 1040 ------- 0 4.3 9.0 3 42
r 0.15932 1 0 tcp 1040 ------- 0 4.3 9.0 4 43
r 0.159336 0 6 tcp 1040 ------- 0 4.0 6.0 3 30
r 0.160152 1 0 tcp 1040 ------- 0 4.3 9.0 5 44
r 0.160168 0 6 tcp 1040 ------- 0 4.0 6.0 4 31
r 0.160984 1 0 tcp 1040 ------- 0 4.3 9.0 6 45
r 0.161 0 6 tcp 1040 ------- 0 4.0 6.0 5 32
r 0.161816 1 0 tcp 1040 ------- 0 4.4 10.0 3 46
r 0.161832 0 6 tcp 1040 ------- 0 4.0 6.0 6 33
r 0.162648 1 0 tcp 1040 ------- 0 4.4 10.0 4 47
r 0.162664 0 7 tcp 1040 ------- 0 4.1 7.0 3 34
r 0.16348 1 0 tcp 1040 ------- 0 4.4 10.0 5 48
r 0.163496 0 7 tcp 1040 ------- 0 4.1 7.0 4 35
r 0.164312 1 0 tcp 1040 ------- 0 4.4 10.0 6 49
r 0.164328 0 7 tcp 1040 ------- 0 4.1 7.0 5 36
r 0.16516 0 7 tcp 1040 ------- 0 4.1 7.0 6 37
r 0.165992 0 8 tcp 1040 ------- 0 4.2 8.0 3 38
r 0.166824 0 8 tcp 1040 ------- 0 4.2 8.0 4 39
r 0.167656 0 8 tcp 1040 ------- 0 4.2 8.0 5 40
r 0.168488 0 8 tcp 1040 ------- 0 4.2 8.0 6 41
r 0.16932 0 9 tcp 1040 ------- 0 4.3 9.0 3 42
r 0.170152 0 9 tcp 1040 ------- 0 4.3 9.0 4 43
r 0.17081 4 3 tcp 1040 ------- 0 4.0 6.0 7 64
r 0.170893 4 3 tcp 1040 ------- 0 4.0 6.0 8 65
r 0.170984 0 9 tcp 1040 ------- 0 4.3 9.0 5 44
r 0.171193 3 2 tcp 1040 ------- 0 4.0 6.0 7 64
r 0.171276 3 2 tcp 1040 ------- 0 4.0 6.0 8 65
r 0.171601 2 1 tcp 1040 ------- 0 4.0 6.0 7 64
r 0.171642 4 3 tcp 1040 ------- 0 4.0 6.0 9 67
r 0.171725 4 3 tcp 1040 ------- 0 4.0 6.0 10 68
r 0.171809 2 1 tcp 1040 ------- 0 4.0 6.0 8 65
r 0.171816 0 9 tcp 1040 ------- 0 4.3 9.0 6 45
r 0.172025 3 2 tcp 1040 ------- 0 4.0 6.0 9 67
r 0.172108 3 2 tcp 1040 ------- 0 4.0 6.0 10 68
r 0.172433 2 1 tcp 1040 ------- 0 4.0 6.0 9 67
r 0.172474 4 3 tcp 1040 ------- 0 4.0 6.0 11 70
r 0.172557 4 3 tcp 1040 ------- 0 4.0 6.0 12 71
r 0.172633 1 0 tcp 1040 ------- 0 4.0 6.0 7 64
r 0.172641 2 1 tcp 1040 ------- 0 4.0 6.0 10 68
r 0.172648 0 10 tcp 1040 ------- 0 4.4 10.0 3 46
r 0.172857 3 2 tcp 1040 ------- 0 4.0 6.0 11 70
r 0.17294 3 2 tcp 1040 ------- 0 4.0 6.0 12 71
r 0.173265 2 1 tcp 1040 ------- 0 4.0 6.0 11 70
r 0.173306 4 3 tcp 1040 ------- 0 4.0 6.0 13 73
r 0.173389 4 3 tcp 1040 ------- 0 4.0 6.0 14 74
r 0.173465 1 0 tcp 1040 ------- 0 4.0 6.0 8 65
r 0.173473 2 1 tcp 1040 ------- 0 4.0 6.0 12 71
r 0.17348 0 10 tcp 1040 ------- 0 4.4 10.0 4 47
r 0.173689 3 2 tcp 1040 ------- 0 4.0 6.0 13 73
r 0.173772 3 2 tcp 1040 ------- 0 4.0 6.0 14 74
r 0.174097 2 1 tcp 1040 ------- 0 4.0 6.0 13 73
r 0.174138 4 3 tcp 1040 ------- 0 4.1 7.0 7 76
r 0.174221 4 3 tcp 1040 ------- 0 4.1 7.0 8 77
r 0.174297 1 0 tcp 1040 ------- 0 4.0 6.0 9 67
r 0.174305 2 1 tcp 1040 ------- 0 4.0 6.0 14 74
r 0.174312 0 10 tcp 1040 ------- 0 4.4 10.0 5 48
r 0.174521 3 2 tcp 1040 ------- 0 4.1 7.0 7 76
r 0.174604 3 2 tcp 1040 ------- 0 4.1 7.0 8 77
r 0.174929 2 1 tcp 1040 ------- 0 4.1 7.0 7 76
r 0.17497 4 3 tcp 1040 ------- 0 4.1 7.0 9 79
r 0.175053 4 3 tcp 1040 ------- 0 4.1 7.0 10 80
r 0.175129 1 0 tcp 1040 ------- 0 4.0 6.0 10 68
r 0.175137 2 1 tcp 1040 ------- 0 4.1 7.0 8 77
r 0.175144 0 10 tcp 1040 ------- 0 4.4 10.0 6 49
r 0.175353 3 2 tcp 1040 ------- 0 4.1 7.0 9 79
r 0.175436 3 2 tcp 1040 ------- 0 4.1 7.0 10 80
r 0.175761 2 1 tcp 1040 ------- 0 4.1 7.0 9 79
r 0.175802 4 3 tcp 1040 ------- 0 4.1 7.0 11 82
r 0.175885 4 3 tcp 1040 ------- 0 4.1 7.0 12 83
r 0.175961 1 0 tcp 1040 ------- 0 4.0 6.0 11 70
r 0.175969 2 1 tcp 1040 ------- 0 4.1 7.0 10 80
r 0.176185 3 2 tcp 1040 ------- 0 4.1 7.0 11 82
r 0.176268 3 2 tcp 1040 ------- 0 4.1 7.0 12 83
r 0.176593 2 1 tcp 1040 ------- 0 4.1 7.0 11 82
r 0.176634 4 3 tcp 1040 ------- 0 4.1 7.0 13 84
r 0.176717 4 3 tcp 1040 ------- 0 4.1 7.0 14 85
r 0.176793 1 0 tcp 1040 ------- 0 4.0 6.0 12 71
r 0.176801 2 1 tcp 1040 ------- 0 4.1 7.0 12 83
r 0.177017 3 2 tcp 1040 ------- 0 4.1 7.0 13 84
r 0.1771 3 2 tcp 1040 ------- 0 4.1 7.0 14 85
r 0.177425 2 1 tcp 1040 ------- 0 4.1 7.0 13 84
r 0.177466 4 3 tcp 1040 ------- 0 4.2 8.0 7 86
r 0.177549 4 3 tcp 1040 ------- 0 4.2 8.0 8 87
r 0.177625 1 0 tcp 1040 ------- 0 4.0 6.0 13 73
r 0.177633 2 1 tcp 1040 ------- 0 4.1 7.0 14 85
r 0.177849 3 2 tcp 1040 ------- 0 4.2 8.0 7 86
r 0.177932 3 2 tcp 1040 ------- 0 4.2 8.0 8 87
r 0.178257 2 1 tcp 1040 ------- 0 4.2 8.0 7 86
r 0.178298 4 3 tcp 1040 ------- 0 4.2 8.0 9 88
r 0.178381 4 3 tcp 1040 ------- 0 4.2 8.0 10 89
r 0.178457 1 0 tcp 1040 ------- 0 4.0 6.0 14 74
r 0.178465 2 1 tcp 1040 ------- 0 4.2 8.0 8 87
r 0.178681 3 2 tcp 1040 ------- 0 4.2 8.0 9 88
r 0.178764 3 2 tcp 1040 ------- 0 4.2 8.0 10 89
r 0.179089 2 1 tcp 1040 ------- 0 4.2 8.0 9 88
r 0.17913 4 3 tcp 1040 ------- 0 4.2 8.0 11 90
r 0.179213 4 3 tcp 1040 ------- 0 4.2 8.0 12 91
r 0.179289 1 0 tcp 1040 ------- 0 4.1 7.0 7 76
r 0.179297 2 1 tcp 1040 ------- 0 4.2 8.0 10 89
r 0.179513 3 2 tcp 1040 ------- 0 4.2 8.0 11 90
r 0.179596 3 2 tcp 1040 ------- 0 4.2 8.0 12 91
r 0.179921 2 1 tcp 1040 ------- 0 4.2 8.0 11 90
r 0.179962 4 3 tcp 1040 ------- 0 4.2 8.0 13 92
r 0.180045 4 3 tcp 1040 ------- 0 4.2 8.0 14 93
r 0.180121 1 0 tcp 1040 ------- 0 4.1 7.0 8 77
r 0.180129 2 1 tcp 1040 ------- 0 4.2 8.0 12 91
r 0.180345 3 2 tcp 1040 ------- 0 4.2 8.0 13 92
r 0.180428 3 2 tcp 1040 ------- 0 4.2 8.0 14 93
r 0.180753 2 1 tcp 1040 ------- 0 4.2 8.0 13 92
r 0.180794 4 3 tcp 1040 ------- 0 4.3 9.0 7 94
r 0.180877 4 3 tcp 1040 ------- 0 4.3 9.0 8 95
r 0.180953 1 0 tcp 1040 ------- 0 4.1 7.0 9 79
r 0.180961 2 1 tcp 1040 ------- 0 4.2 8.0 14 93
r 0.181177 3 2 tcp 1040 ------- 0 4.3 9.0 7 94
r 0.18126 3 2 tcp 1040 ------- 0 4.3 9.0 8 95
r 0.181585 2 1 tcp 1040 ------- 0 4.3 9.0 7 94
r 0.181626 4 3 tcp 1040 ------- 0 4.3 9.0 9 96
r 0.181709 4 3 tcp 1040 ------- 0 4.3 9.0 10 97
r 0.181785 1 0 tcp 1040 ------- 0 4.1 7.0 10 80
r 0.181793 2 1 tcp 1040 ------- 0 4.3 9.0 8 95
r 0.182009 3 2 tcp 1040 ------- 0 4.3 9.0 9 96
r 0.182092 3 2 tcp 1040 ------- 0 4.3 9.0 10 97
r 0.182417 2 1 tcp 1040 ------- 0 4.3 9.0 9 96
r 0.182458 4 3 tcp 1040 ------- 0 4.3 9.0 11 98
r 0.182541 4 3 tcp 1040 ------- 0 4.3 9.0 12 99
r 0.182617 1 0 tcp 1040 ------- 0 4.1 7.0 11 82
r 0.182625 2 1 tcp 1040 ------- 0 4.3 9.0 10 97
r 0.182841 3 2 tcp 1040 ------- 0 4.3 9.0 11 98
r 0.182924 3 2 tcp 1040 ------- 0 4.3 9.0 12 99
r 0.183249 2 1 tcp 1040 ------- 0 4.3 9.0 11 98
r 0.18329 4 3 tcp 1040 ------- 0 4.3 9.0 13 100
r 0.183373 4 3 tcp 1040 ------- 0 4.3 9.0 14 101
r 0.183449 1 0 tcp 1040 ------- 0 4.1 7.0 12 83
r 0.183457 2 1 tcp 1040 ------- 0 4.3 9.0 12 99
r 0.183465 0 6 tcp 1040 ------- 0 4.0 6.0 7 64
r 0.183673 3 2 tcp 1040 ------- 0 4.3 9.0 13 100
r 0.183756 3 2 tcp 1040 ------- 0 4.3 9.0 14 101
r 0.184081 2 1 tcp 1040 ------- 0 4.3 9.0 13 100
r 0.184122 4 3 tcp 1040 ------- 0 4.4 10.0 7 103
r 0.184205 4 3 tcp 1040 ------- 0 4.4 10.0 8 104
r 0.184281 1 0 tcp 1040 ------- 0 4.1 7.0 13 84
r 0.184289 2 1 tcp 1040 ------- 0 4.3 9.0 14 101
r 0.184297 0 6 tcp 1040 ------- 0 4.0 6.0 8 65
r 0.184505 3 2 tcp 1040 ------- 0 4.4 10.0 7 103
r 0.184588 3 2 tcp 1040 ------- 0 4.4 10.0 8 104
r 0.184913 2 1 tcp 1040 ------- 0 4.4 10.0 7 103
r 0.184954 4 3 tcp 1040 ------- 0 4.4 10.0 9 106
r 0.185037 4 3 tcp 1040 ------- 0 4.4 10.0 10 107
r 0.185113 1 0 tcp 1040 ------- 0 4.1 7.0 14 85
r 0.185121 2 1 tcp 1040 ------- 0 4.4 10.0 8 104
r 0.185129 0 6 tcp 1040 ------- 0 4.0 6.0 9 67
r 0.185337 3 2 tcp 1040 ------- 0 4.4 10.0 9 106
r 0.18542 3 2 tcp 1040 ------- 0 4.4 10.0 10 107
r 0.185745 2 1 tcp 1040 ------- 0 4.4 10.0 9 106
r 0.185786 4 3 tcp 1040 ------- 0 4.4 10.0 11 109
r 0.185869 4 3 tcp 1040 ------- 0 4.4 10.0 12 110
r 0.185945 1 0 tcp 1040 ------- 0 4.2 8.0 7 86
r 0.185953 2 1 tcp 1040 ------- 0 4.4 10.0 10 107
r 0.185961 0 6 tcp 1040 ------- 0 4.0 6.0 10 68
r 0.186169 3 2 tcp 1040 ------- 0 4.4 10.0 11 109
r 0.186252 3 2 tcp 1040 ------- 0 4.4 10.0 12 110
r 0.186577 2 1 tcp 1040 ------- 0 4.4 10.0 11 109
r 0.186618 4 3 tcp 1040 ------- 0 4.4 10.0 13 112
r 0.186701 4 3 tcp 1040 ------- 0 4.4 10.0 14 113
r 0.186777 1 0 tcp 1040 ------- 0 4.2 8.0 8 87
r 0.186785 2 1 tcp 1040 ------- 0 4.4 10.0 12 110
r 0.186793 0 6 tcp 1040 ------- 0 4.0 6.0 11 70
r 0.187001 3 2 tcp 1040 ------- 0 4.4 10.0 13 112
r 0.187084 3 2 tcp 1040 ------- 0 4.4 10.0 14 113
r 0.187409 2 1 tcp 1040 ------- 0 4.4 10.0 13 112
r 0.187609 1 0 tcp 1040 ------- 0 4.2 8.0 9 88
r 0.187617 2 1 tcp 1040 ------- 0 4.4 10.0 14 113
r 0.187625 0 6 tcp 1040 ------- 0 4.0 6.0 12 71
r 0.188441 1 0 tcp 1040 ------- 0 4.2 8.0 10 89
r 0.188457 0 6 tcp 1040 ------- 0 4.0 6.0 13 73
r 0.189273 1 0 tcp 1040 ------- 0 4.2 8.0 11 90
r 0.189289 0 6 tcp 1040 ------- 0 4.0 6.0 14 74
r 0.190105 1 0 tcp 1040 ------- 0 4.2 8.0 12 91
r 0.190121 0 7 tcp 1040 ------- 0 4.1 7.0 7 76
r 0.190937 1 0 tcp 1040 ------- 0 4.2 8.0 13 92
r 0.190953 0 7 tcp 1040 ------- 0 4.1 7.0 8 77
r 0.191769 1 0 tcp 1040 ------- 0 4.2 8.0 14 93
r 0.191785 0 7 tcp 1040 ------- 0 4.1 7.0 9 79
r 0.192601 1 0 tcp 1040 ------- 0 4.3 9.0 7 94
r 0.192617 0 7 tcp 1040 ------- 0 4.1 7.0 10 80
r 0.193433 1 0 tcp 1040 ------- 0 4.3 9.0 8 95
r 0.193449 0 7 tcp 1040 ------- 0 4.1 7.0 11 82
r 0.194265 1 0 tcp 1040 ------- 0 4.3 9.0 9 96
r 0.194281 0 7 tcp 1040 ------- 0 4.1 7.0 12 83
r 0.194938 4 3 tcp 1040 ------- 0 4.0 6.0 15 124
r 0.195022 4 3 tcp 1040 ------- 0 4.0 6.0 16 125
r 0.195097 1 0 tcp 1040 ------- 0 4.3 9.0 10 97
r 0.195113 0 7 tcp 1040 ------- 0 4.1 7.0 13 84
r 0.195322 3 2 tcp 1040 ------- 0 4.0 6.0 15 124
r 0.195405 3 2 tcp 1040 ------- 0 4.0 6.0 16 125
r 0.19573 2 1 tcp 1040 ------- 0 4.0 6.0 15 124
r 0.19577 4 3 tcp 1040 ------- 0 4.0 6.0 17 127
r 0.195854 4 3 tcp 1040 ------- 0 4.0 6.0 18 128
r 0.195929 1 0 tcp 1040 ------- 0 4.3 9.0 11 98
r 0.195938 2 1 tcp 1040 ------- 0 4.0 6.0 16 125
r 0.195945 0 7 tcp 1040 ------- 0 4.1 7.0 14 85
r 0.196154 3 2 tcp 1040 ------- 0 4.0 6.0 17 127
r 0.196237 3 2 tcp 1040 ------- 0 4.0 6.0 18 128
r 0.196562 2 1 tcp 1040 ------- 0 4.0 6.0 17 127
r 0.196602 4 3 tcp 1040 ------- 0 4.0 6.0 19 130
r 0.196686 4 3 tcp 1040 ------- 0 4.0 6.0 20 131
r 0.196761 1 0 tcp 1040 ------- 0 4.3 9.0 12 99
r 0.19677 2 1 tcp 1040 ------- 0 4.0 6.0 18 128
r 0.196777 0 8 tcp 1040 ------- 0 4.2 8.0 7 86
r 0.196986 3 2 tcp 1040 ------- 0 4.0 6.0 19 130
r 0.197069 3 2 tcp 1040 ------- 0 4.0 6.0 20 131
r 0.197394 2 1 tcp 1040 ------- 0 4.0 6.0 19 130
r 0.197434 4 3 tcp 1040 ------- 0 4.0 6.0 21 133
r 0.197518 4 3 tcp 1040 ------- 0 4.0 6.0 22 134
r 0.197593 1 0 tcp 1040 ------- 0 4.3 9.0 13 100
r 0.197602 2 1 tcp 1040 ------- 0 4.0 6.0 20 131
r 0.197609 0 8 tcp 1040 ------- 0 4.2 8.0 8 87
r 0.197818 3 2 tcp 1040 ------- 0 4.0 6.0 21 133
r 0.197901 3 2 tcp 1040 ------- 0 4.0 6.0 22 134
r 0.198226 2 1 tcp 1040 ------- 0 4.0 6.0 21 133
r 0.198266 4 3 tcp 1040 ------- 0 4.0 6.0 23 136
r 0.19835 4 3 tcp 1040 ------- 0 4.0 6.0 24 137
r 0.198425 1 0 tcp 1040 ------- 0 4.3 9.0 14 101
r 0.198434 2 1 tcp 1040 ------- 0 4.0 6.0 22 134
r 0.198441 0 8 tcp 1040 ------- 0 4.2 8.0 9 88
r 0.19865 3 2 tcp 1040 ------- 0 4.0 6.0 23 136
r 0.198733 3 2 tcp 1040 ------- 0 4.0 6.0 24 137
r 0.199058 2 1 tcp 1040 ------- 0 4.0 6.0 23 136
r 0.199098 4 3 tcp 1040 ------- 0 4.0 6.0 25 139
r 0.199182 4 3 tcp 1040 ------- 0 4.0 6.0 26 140
r 0.199257 1 0 tcp 1040 ------- 0 4.4 10.0 7 103
r 0.199266 2 1 tcp 1040 ------- 0 4.0 6.0 24 137
r 0.199273 0 8 tcp 1040 ------- 0 4.2 8.0 10 89
r 0.199482 3 2 tcp 1040 ------- 0 4.0 6.0 25 139
r 0.199565 3 2 tcp 1040 ------- 0 4.0 6.0 26 140
r 0.19989 2 1 tcp 1040 ------- 0 4.0 6.0 25 139
r 0.19993 4 3 tcp 1040 ------- 0 4.0 6.0 27 142
r 0.200014 4 3 tcp 1040 ------- 0 4.0 6.0 28 143
r 0.200089 1 0 tcp 1040 ------- 0 4.4 10.0 8 104
r 0.200098 2 1 tcp 1040 ------- 0 4.0 6.0 26 140
r 0.200105 0 8 tcp 1040 ------- 0 4.2 8.0 11 90
r 0.200314 3 2 tcp 1040 ------- 0 4.0 6.0 27 142
r 0.200397 3 2 tcp 1040 ------- 0 4.0 6.0 28 143
r 0.200722 2 1 tcp 1040 ------- 0 4.0 6.0 27 142
r 0.200762 4 3 tcp 1040 ------- 0 4.0 6.0 29 145
r 0.200846 4 3 tcp 1040 ------- 0 4.0 6.0 30 146
r 0.200921 1 0 tcp 1040 ------- 0 4.4 10.0 9 106
r 0.20093 2 1 tcp 1040 ------- 0 4.0 6.0 28 143
r 0.200937 0 8 tcp 1040 ------- 0 4.2 8.0 12 91
r 0.201146 3 2 tcp 1040 ------- 0 4.0 6.0 29 145
r 0.201229 3 2 tcp 1040 ------- 0 4.0 6.0 30 146
r 0.201554 2 1 tcp 1040 ------- 0 4.0 6.0 29 145
r 0.201594 4 3 tcp 1040 ------- 0 4.1 7.0 15 148
r 0.201678 4 3 tcp 1040 ------- 0 4.1 7.0 16 149
r 0.201753 1 0 tcp 1040 ------- 0 4.4 10.0 10 107
r 0.201762 2 1 tcp 1040 ------- 0 4.0 6.0 30 146
r 0.201769 0 8 tcp 1040 ------- 0 4.2 8.0 13 92
r 0.201978 3 2 tcp 1040 ------- 0 4.1 7.0 15 148
r 0.202061 3 2 tcp 1040 ------- 0 4.1 7.0 16 149
r 0.202386 2 1 tcp 1040 ------- 0 4.1 7.0 15 148
r 0.202426 4 3 tcp 1040 ------- 0 4.1 7.0 17 151
r 0.20251 4 3 tcp 1040 ------- 0 4.1 7.0 18 152
r 0.202585 1 0 tcp 1040 ------- 0 4.4 10.0 11 109
r 0.202594 2 1 tcp 1040 ------- 0 4.1 7.0 16 149
r 0.202601 0 8 tcp 1040 ------- 0 4.2 8.0 14 93
r 0.20281 3 2 tcp 1040 ------- 0 4.1 7.0 17 151
r 0.202893 3 2 tcp 1040 ------- 0 4.1 7.0 18 152
r 0.203218 2 1 tcp 1040 ------- 0 4.1 7.0 17 151
r 0.203258 4 3 tcp 1040 ------- 0 4.1 7.0 19 154
r 0.203342 4 3 tcp 1040 ------- 0 4.1 7.0 20 155
r 0.203417 1 0 tcp 1040 ------- 0 4.4 10.0 12 110
r 0.203426 2 1 tcp 1040 ------- 0 4.1 7.0 18 152
r 0.203433 0 9 tcp 1040 ------- 0 4.3 9.0 7 94
r 0.203642 3 2 tcp 1040 ------- 0 4.1 7.0 19 154
r 0.203725 3 2 tcp 1040 ------- 0 4.1 7.0 20 155
r 0.20405 2 1 tcp 1040 ------- 0 4.1 7.0 19 154
r 0.20409 4 3 tcp 1040 ------- 0 4.1 7.0 21 157
r 0.204174 4 3 tcp 1040 ------- 0 4.1 7.0 22 158
r 0.204249 1 0 tcp 1040 ------- 0 4.4 10.0 13 112
r 0.204258 2 1 tcp 1040 ------- 0 4.1 7.0 20 155
r 0.204265 0 9 tcp 1040 ------- 0 4.3 9.0 8 95
r 0.204474 3 2 tcp 1040 ------- 0 4.1 7.0 21 157
r 0.204557 3 2 tcp 1040 ------- 0 4.1 7.0 22 158
r 0.204882 2 1 tcp 1040 ------- 0 4.1 7.0 21 157
r 0.204922 4 3 tcp 1040 ------- 0 4.1 7.0 23 160
r 0.205006 4 3 tcp 1040 ------- 0 4.1 7.0 24 161
r 0.205081 1 0 tcp 1040 ------- 0 4.4 10.0 14 113
r 0.20509 2 1 tcp 1040 ------- 0 4.1 7.0 22 158
r 0.205097 0 9 tcp 1040 ------- 0 4.3 9.0 9 96
r 0.205306 3 2 tcp 1040 ------- 0 4.1 7.0 23 160
r 0.205389 3 2 tcp 1040 ------- 0 4.1 7.0 24 161
r 0.205714 2 1 tcp 1040 ------- 0 4.1 7.0 23 160
r 0.205754 4 3 tcp 1040 ------- 0 4.1 7.0 25 163
r 0.205838 4 3 tcp 1040 ------- 0 4.1 7.0 26 164
r 0.205913 1 0 tcp 1040 ------- 0 4.0 6.0 15 124
r 0.205922 2 1 tcp 1040 ------- 0 4.1 7.0 24 161
r 0.205929 0 9 tcp 1040 ------- 0 4.3 9.0 10 97
r 0.206138 3 2 tcp 1040 ------- 0 4.1 7.0 25 163
r 0.206221 3 2 tcp 1040 ------- 0 4.1 7.0 26 164
r 0.206546 2 1 tcp 1040 ------- 0 4.1 7.0 25 163
r 0.206586 4 3 tcp 1040 ------- 0 4.1 7.0 27 166
r 0.20667 4 3 tcp 1040 ------- 0 4.1 7.0 28 167
r 0.206745 1 0 tcp 1040 ------- 0 4.0 6.0 16 125
r 0.206754 2 1 tcp 1040 ------- 0 4.1 7.0 26 164
r 0.206761 0 9 tcp 1040 ------- 0 4.3 9.0 11 98
r 0.20697 3 2 tcp 1040 ------- 0 4.1 7.0 27 166
r 0.207053 3 2 tcp 1040 ------- 0 4.1 7.0 28 167
r 0.207378 2 1 tcp 1040 ------- 0 4.1 7.0 27 166
r 0.207418 4 3 tcp 1040 ------- 0 4.1 7.0 29 169
r 0.207502 4 3 tcp 1040 ------- 0 4.1 7.0 30 170
r 0.207577 1 0 tcp 1040 ------- 0 4.0 6.0 17 127
r 0.207586 2 1 tcp 1040 ------- 0 4.1 7.0 28 167
r 0.207593 0 9 tcp 1040 ------- 0 4.3 9.0 12 99
r 0.207802 3 2 tcp 1040 ------- 0 4.1 7.0 29 169
r 0.207885 3 2 tcp 1040 ------- 0 4.1 7.0 30 170
r 0.20821 2 1 tcp 1040 ------- 0 4.1 7.0 29 169
r 0.20825 4 3 tcp 1040 ------- 0 4.2 8.0 15 172
r 0.208334 4 3 tcp 1040 ------- 0 4.2 8.0 16 173
r 0.208409 1 0 tcp 1040 ------- 0 4.0 6.0 18 128
r 0.208418 2 1 tcp 1040 ------- 0 4.1 7.0 30 170
r 0.208425 0 9 tcp 1040 ------- 0 4.3 9.0 13 100
r 0.208634 3 2 tcp 1040 ------- 0 4.2 8.0 15 172
r 0.208717 3 2 tcp 1040 ------- 0 4.2 8.0 16 173
r 0.209042 2 1 tcp 1040 ------- 0 4.2 8.0 15 172
r 0.209082 4 3 tcp 1040 ------- 0 4.2 8.0 17 175
r 0.209166 4 3 tcp 1040 ------- 0 4.2 8.0 18 176
r 0.209241 1 0 tcp 1040 ------- 0 4.0 6.0 19 130
r 0.20925 2 1 tcp 1040 ------- 0 4.2 8.0 16 173
r 0.209257 0 9 tcp 1040 ------- 0 4.3 9.0 14 101
r 0.209466 3 2 tcp 1040 ------- 0 4.2 8.0 17 175
r 0.209549 3 2 tcp 1040 ------- 0 4.2 8.0 18 176
r 0.209874 2 1 tcp 1040 ------- 0 4.2 8.0 17 175
r 0.209914 4 3 tcp 1040 ------- 0 4.2 8.0 19 178
r 0.209998 4 3 tcp 1040 ------- 0 4.2 8.0 20 179
r 0.210073 1 0 tcp 1040 ------- 0 4.0 6.0 20 131
r 0.210082 2 1 tcp 1040 ------- 0 4.2 8.0 18 176
r 0.210089 0 10 tcp 1040 ------- 0 4.4 10.0 7 103
r 0.210298 3 2 tcp 1040 ------- 0 4.2 8.0 19 178
r 0.210381 3 2 tcp 1040 ------- 0 4.2 8.0 20 179
r 0.210706 2 1 tcp 1040 ------- 0 4.2 8.0 19 178
r 0.210746 4 3 tcp 1040 ------- 0 4.2 8.0 21 181
r 0.21083 4 3 tcp 1040 ------- 0 4.2 8.0 22 182
r 0.210905 1 0 tcp 1040 ------- 0 4.0 6.0 21 133
r 0.210914 2 1 tcp 1040 ------- 0 4.2 8.0 20 179
r 0.210921 0 10 tcp 1040 ------- 0 4.4 10.0 8 104
r 0.21113 3 2 tcp 1040 ------- 0 4.2 8.0 21 181
r 0.211213 3 2 tcp 1040 ------- 0 4.2 8.0 22 182
r 0.211538 2 1 tcp 1040 ------- 0 4.2 8.0 21 181
r 0.211578 4 3 tcp 1040 ------- 0 4.2 8.0 23 184
r 0.211662 4 3 tcp 1040 ------- 0 4.2 8.0 24 185
r 0.211737 1 0 tcp 1040 ------- 0 4.0 6.0 22 134
r 0.211746 2 1 tcp 1040 ------- 0 4.2 8.0 22 182
r 0.211753 0 10 tcp 1040 ------- 0 4.4 10.0 9 106
r 0.211962 3 2 tcp 1040 ------- 0 4.2 8.0 23 184
r 0.212045 3 2 tcp 1040 ------- 0 4.2 8.0 24 185
r 0.21237 2 1 tcp 1040 ------- 0 4.2 8.0 23 184
r 0.21241 4 3 tcp 1040 ------- 0 4.2 8.0 25 187
r 0.212494 4 3 tcp 1040 ------- 0 4.2 8.0 26 188
r 0.212569 1 0 tcp 1040 ------- 0 4.0 6.0 23 136
r 0.212578 2 1 tcp 1040 ------- 0 4.2 8.0 24 185
r 0.212585 0 10 tcp 1040 ------- 0 4.4 10.0 10 107
r 0.212794 3 2 tcp 1040 ------- 0 4.2 8.0 25 187
r 0.212877 3 2 tcp 1040 ------- 0 4.2 8.0 26 188
r 0.213202 2 1 tcp 1040 ------- 0 4.2 8.0 25 187
r 0.213242 4 3 tcp 1040 ------- 0 4.2 8.0 27 190
r 0.213326 4 3 tcp 1040 ------- 0 4.2 8.0 28 191
r 0.213401 1 0 tcp 1040 ------- 0 4.0 6.0 24 137
r 0.21341 2 1 tcp 1040 ------- 0 4.2 8.0 26 188
r 0.213417 0 10 tcp 1040 ------- 0 4.4 10.0 11 109
r 0.213626 3 2 tcp 1040 ------- 0 4.2 8.0 27 190
r 0.213709 3 2 tcp 1040 ------- 0 4.2 8.0 28 191
r 0.214034 2 1 tcp 1040 ------- 0 4.2 8.0 27 190
r 0.214074 4 3 tcp 1040 ------- 0 4.2 8.0 29 193
r 0.214158 4 3 tcp 1040 ------- 0 4.2 8.0 30 194
r 0.214233 1 0 tcp 1040 ------- 0 4.0 6.0 25 139
r 0.214242 2 1 tcp 1040 ------- 0 4.2 8.0 28 191
r 0.214249 0 10 tcp 1040 ------- 0 4.4 10.0 12 110
r 0.214458 3 2 tcp 1040 ------- 0 4.2 8.0 29 193
r 0.214541 3 2 tcp 1040 ------- 0 4.2 8.0 30 194
r 0.214866 2 1 tcp 1040 ------- 0 4.2 8.0 29 193
r 0.214906 4 3 tcp 1040 ------- 0 4.3 9.0 15 196
r 0.21499 4 3 tcp 1040 ------- 0 4.3 9.0 16 197
r 0.215065 1 0 tcp 1040 ------- 0 4.0 6.0 26 140
r 0.215074 2 1 tcp 1040 ------- 0 4.2 8.0 30 194
r 0.215081 0 10 tcp 1040 ------- 0 4.4 10.0 13 112
r 0.21529 3 2 tcp 1040 ------- 0 4.3 9.0 15 196
r 0.215373 3 2 tcp 1040 ------- 0 4.3 9.0 16 197
r 0.215698 2 1 tcp 1040 ------- 0 4.3 9.0 15 196
r 0.215738 4 3 tcp 1040 ------- 0 4.3 9.0 17 199
r 0.215822 4 3 tcp 1040 ------- 0 4.3 9.0 18 200
r 0.215897 1 0 tcp 1040 ------- 0 4.0 6.0 27 142
r 0.215906 2 1 tcp 1040 ------- 0 4.3 9.0 16 197
r 0.215913 0 10 tcp 1040 ------- 0 4.4 10.0 14 113
r 0.216122 3 2 tcp 1040 ------- 0 4.3 9.0 17 199
r 0.216205 3 2 tcp 1040 ------- 0 4.3 9.0 18 200
r 0.21653 2 1 tcp 1040 ------- 0 4.3 9.0 17 199
r 0.21657 4 3 tcp 1040 ------- 0 4.3 9.0 19 202
r 0.216654 4 3 tcp 1040 ------- 0 4.3 9.0 20 203
r 0.216729 1 0 tcp 1040 ------- 0 4.0 6.0 28 143
r 0.216738 2 1 tcp 1040 ------- 0 4.3 9.0 18 200
r 0.216745 0 6 tcp 1040 ------- 0 4.0 6.0 15 124
r 0.216954 3 2 tcp 1040 ------- 0 4.3 9.0 19 202
r 0.217037 3 2 tcp 1040 ------- 0 4.3 9.0 20 203
r 0.217362 2 1 tcp 1040 ------- 0 4.3 9.0 19 202
r 0.217402 4 3 tcp 1040 ------- 0 4.3 9.0 21 205
r 0.217486 4 3 tcp 1040 ------- 0 4.3 9.0 22 206
r 0.217561 1 0 tcp 1040 ------- 0 4.0 6.0 29 145
r 0.21757 2 1 tcp 1040 ------- 0 4.3 9.0 20 203
r 0.217577 0 6 tcp 1040 ------- 0 4.0 6.0 16 125
r 0.217786 3 2 tcp 1040 ------- 0 4.3 9.0 21 205
r 0.217869 3 2 tcp 1040 ------- 0 4.3 9.0 22 206
r 0.218194 2 1 tcp 1040 ------- 0 4.3 9.0 21 205
r 0.218234 4 3 tcp 1040 ------- 0 4.3 9.0 23 208
r 0.218318 4 3 tcp 1040 ------- 0 4.3 9.0 24 209
r 0.218393 1 0 tcp 1040 ------- 0 4.0 6.0 30 146
r 0.218402 2 1 tcp 1040 ------- 0 4.3 9.0 22 206
r 0.218409 0 6 tcp 1040 ------- 0 4.0 6.0 17 127
r 0.218618 3 2 tcp 1040 ------- 0 4.3 9.0 23 208
r 0.218701 3 2 tcp 1040 ------- 0 4.3 9.0 24 209
r 0.219026 2 1 tcp 1040 ------- 0 4.3 9.0 23 208
r 0.219066 4 3 tcp 1040 ------- 0 4.3 9.0 25 211
r 0.21915 4 3 tcp 1040 ------- 0 4.3 9.0 26 212
r 0.219225 1 0 tcp 1040 ------- 0 4.1 7.0 15 148
r 0.219234 2 1 tcp 1040 ------- 0 4.3 9.0 24 209
r 0.219241 0 6 tcp 1040 ------- 0 4.0 6.0 18 128
r 0.21945 3 2 tcp 1040 ------- 0 4.3 9.0 25 211
r 0.219533 3 2 tcp 1040 ------- 0 4.3 9.0 26 212
r 0.219858 2 1 tcp 1040 ------- 0 4.3 9.0 25 211
r 0.219898 4 3 tcp 1040 ------- 0 4.3 9.0 27 214
r 0.219982 4 3 tcp 1040 ------- 0 4.3 9.0 28 215
r 0.220057 1 0 tcp 1040 ------- 0 4.1 7.0 16 149
r 0.220066 2 1 tcp 1040 ------- 0 4.3 9.0 26 212
r 0.220073 0 6 tcp 1040 ------- 0 4.0 6.0 19 130
r 0.220282 3 2 tcp 1040 ------- 0 4.3 9.0 27 214
r 0.220365 3 2 tcp 1040 ------- 0 4.3 9.0 28 215
r 0.22069 2 1 tcp 1040 ------- 0 4.3 9.0 27 214
r 0.22073 4 3 tcp 1040 ------- 0 4.3 9.0 29 217
r 0.220814 4 3 tcp 1040 ------- 0 4.3 9.0 30 218
r 0.220889 1 0 tcp 1040 ------- 0 4.1 7.0 17 151
r 0.220898 2 1 tcp 1040 ------- 0 4.3 9.0 28 215
r 0.220905 0 6 tcp 1040 ------- 0 4.0 6.0 20 131
r 0.221114 3 2 tcp 1040 ------- 0 4.3 9.0 29 217
r 0.221197 3 2 tcp 1040 ------- 0 4.3 9.0 30 218
r 0.221522 2 1 tcp 1040 ------- 0 4.3 9.0 29 217
r 0.221562 4 3 tcp 1040 ------- 0 4.4 10.0 15 220
r 0.221646 4 3 tcp 1040 ------- 0 4.4 10.0 16 221
r 0.221721 1 0 tcp 1040 ------- 0 4.1 7.0 18 152
r 0.22173 2 1 tcp 1040 ------- 0 4.3 9.0 30 218
r 0.221737 0 6 tcp 1040 ------- 0 4.0 6.0 21 133
r 0.221946 3 2 tcp 1040 ------- 0 4.4 10.0 15 220
r 0.222029 3 2 tcp 1040 ------- 0 4.4 10.0 16 221
r 0.222354 2 1 tcp 1040 ------- 0 4.4 10.0 15 220
r 0.222394 4 3 tcp 1040 ------- 0 4.4 10.0 17 223
r 0.222478 4 3 tcp 1040 ------- 0 4.4 10.0 18 224
r 0.222553 1 0 tcp 1040 ------- 0 4.1 7.0 19 154
r 0.222562 2 1 tcp 1040 ------- 0 4.4 10.0 16 221
r 0.222569 0 6 tcp 1040 ------- 0 4.0 6.0 22 134
r 0.222778 3 2 tcp 1040 ------- 0 4.4 10.0 17 223
r 0.222861 3 2 tcp 1040 ------- 0 4.4 10.0 18 224
r 0.223186 2 1 tcp 1040 ------- 0 4.4 10.0 17 223
r 0.223226 4 3 tcp 1040 ------- 0 4.4 10.0 19 226
r 0.22331 4 3 tcp 1040 ------- 0 4.4 10.0 20 227
r 0.223385 1 0 tcp 1040 ------- 0 4.1 7.0 20 155
r 0.223394 2 1 tcp 1040 ------- 0 4.4 10.0 18 224
r 0.223401 0 6 tcp 1040 ------- 0 4.0 6.0 23 136
r 0.22361 3 2 tcp 1040 ------- 0 4.4 10.0 19 226
r 0.223693 3 2 tcp 1040 ------- 0 4.4 10.0 20 227
r 0.224018 2 1 tcp 1040 ------- 0 4.4 10.0 19 226
r 0.224058 4 3 tcp 1040 ------- 0 4.4 10.0 21 229
r 0.224142 4 3 tcp 1040 ------- 0 4.4 10.0 22 230
r 0.224217 1 0 tcp 1040 ------- 0 4.1 7.0 21 157
r 0.224226 2 1 tcp 1040 ------- 0 4.4 10.0 20 227
r 0.224233 0 6 tcp 1040 ------- 0 4.0 6.0 24 137
r 0.224442 3 2 tcp 1040 ------- 0 4.4 10.0 21 229
r 0.224525 3 2 tcp 1040 ------- 0 4.4 10.0 22 230
r 0.22485 2 1 tcp 1040 ------- 0 4.4 10.0 21 229
r 0.22489 4 3 tcp 1040 ------- 0 4.4 10.0 23 232