r 0.261519 4 3 tcp 40 ------- 0 4.3 9.0 0 0
r 0.261822 3 2 tcp 40 ------- 0 4.3 9.0 0 0
r 0.26203 2 1 tcp 40 ------- 0 4.3 9.0 0 0
r 0.262262 1 0 tcp 40 ------- 0 4.3 9.0 0 0
r 0.272294 0 9 tcp 40 ------- 0 4.3 9.0 0 0
r 0.283767 4 3 tcp 1040 ------- 0 4.3 9.0 1 2
r 0.283851 4 3 tcp 1040 ------- 0 4.3 9.0 2 3
r 0.284151 3 2 tcp 1040 ------- 0 4.3 9.0 1 2
r 0.284234 3 2 tcp 1040 ------- 0 4.3 9.0 2 3
r 0.284559 2 1 tcp 1040 ------- 0 4.3 9.0 1 2
r 0.284767 2 1 tcp 1040 ------- 0 4.3 9.0 2 3
r 0.285591 1 0 tcp 1040 ------- 0 4.3 9.0 1 2
r 0.286423 1 0 tcp 1040 ------- 0 4.3 9.0 2 3
r 0.296423 0 9 tcp 1040 ------- 0 4.3 9.0 1 2
r 0.297255 0 9 tcp 1040 ------- 0 4.3 9.0 2 3
r 0.307896 4 3 tcp 1040 ------- 0 4.3 9.0 3 6
r 0.307979 4 3 tcp 1040 ------- 0 4.3 9.0 4 7
r 0.308279 3 2 tcp 1040 ------- 0 4.3 9.0 3 6
r 0.308363 3 2 tcp 1040 ------- 0 4.3 9.0 4 7
r 0.308687 2 1 tcp 1040 ------- 0 4.3 9.0 3 6
r 0.308728 4 3 tcp 1040 ------- 0 4.3 9.0 5 8
r 0.308811 4 3 tcp 1040 ------- 0 4.3 9.0 6 9
r 0.308895 2 1 tcp 1040 ------- 0 4.3 9.0 4 7
r 0.309111 3 2 tcp 1040 ------- 0 4.3 9.0 5 8
r 0.309195 3 2 tcp 1040 ------- 0 4.3 9.0 6 9
r 0.309519 2 1 tcp 1040 ------- 0 4.3 9.0 5 8
r 0.309719 1 0 tcp 1040 ------- 0 4.3 9.0 3 6
r 0.309727 2 1 tcp 1040 ------- 0 4.3 9.0 6 9
r 0.310551 1 0 tcp 1040 ------- 0 4.3 9.0 4 7
r 0.311383 1 0 tcp 1040 ------- 0 4.3 9.0 5 8
r 0.312215 1 0 tcp 1040 ------- 0 4.3 9.0 6 9
r 0.320551 0 9 tcp 1040 ------- 0 4.3 9.0 3 6
r 0.321383 0 9 tcp 1040 ------- 0 4.3 9.0 4 7
r 0.322215 0 9 tcp 1040 ------- 0 4.3 9.0 5 8
r 0.323047 0 9 tcp 1040 ------- 0 4.3 9.0 6 9
r 0.332025 4 3 tcp 1040 ------- 0 4.3 9.0 7 14
r 0.332108 4 3 tcp 1040 ------- 0 4.3 9.0 8 15
r 0.332408 3 2 tcp 1040 ------- 0 4.3 9.0 7 14
r 0.332491 3 2 tcp 1040 ------- 0 4.3 9.0 8 15
r 0.332816 2 1 tcp 1040 ------- 0 4.3 9.0 7 14
r 0.332857 4 3 tcp 1040 ------- 0 4.3 9.0 9 16
r 0.33294 4 3 tcp 1040 ------- 0 4.3 9.0 10 17
r 0.333024 2 1 tcp 1040 ------- 0 4.3 9.0 8 15
r 0.33324 3 2 tcp 1040 ------- 0 4.3 9.0 9 16
r 0.333323 3 2 tcp 1040 ------- 0 4.3 9.0 10 17
r 0.333648 2 1 tcp 1040 ------- 0 4.3 9.0 9 16
r 0.333689 4 3 tcp 1040 ------- 0 4.3 9.0 11 18
r 0.333772 4 3 tcp 1040 ------- 0 4.3 9.0 12 19
r 0.333848 1 0 tcp 1040 ------- 0 4.3 9.0 7 14
r 0.333856 2 1 tcp 1040 ------- 0 4.3 9.0 10 17
r 0.334072 3 2 tcp 1040 ------- 0 4.3 9.0 11 18
r 0.334155 3 2 tcp 1040 ------- 0 4.3 9.0 12 19
r 0.33448 2 1 tcp 1040 ------- 0 4.3 9.0 11 18
r 0.334521 4 3 tcp 1040 ------- 0 4.3 9.0 13 20
r 0.334604 4 3 tcp 1040 ------- 0 4.3 9.0 14 21
r 0.33468 1 0 tcp 1040 ------- 0 4.3 9.0 8 15
r 0.334688 2 1 tcp 1040 ------- 0 4.3 9.0 12 19
r 0.334904 3 2 tcp 1040 ------- 0 4.3 9.0 13 20
r 0.334987 3 2 tcp 1040 ------- 0 4.3 9.0 14 21
r 0.335312 2 1 tcp 1040 ------- 0 4.3 9.0 13 20
r 0.335512 1 0 tcp 1040 ------- 0 4.3 9.0 9 16
r 0.33552 2 1 tcp 1040 ------- 0 4.3 9.0 14 21
r 0.336344 1 0 tcp 1040 ------- 0 4.3 9.0 10 17
r 0.337176 1 0 tcp 1040 ------- 0 4.3 9.0 11 18
r 0.338008 1 0 tcp 1040 ------- 0 4.3 9.0 12 19
r 0.33884 1 0 tcp 1040 ------- 0 4.3 9.0 13 20
r 0.339672 1 0 tcp 1040 ------- 0 4.3 9.0 14 21
r 0.34468 0 9 tcp 1040 ------- 0 4.3 9.0 7 14
r 0.345512 0 9 tcp 1040 ------- 0 4.3 9.0 8 15
r 0.346344 0 9 tcp 1040 ------- 0 4.3 9.0 9 16
r 0.347176 0 9 tcp 1040 ------- 0 4.3 9.0 10 17
r 0.348008 0 9 tcp 1040 ------- 0 4.3 9.0 11 18
r 0.34884 0 9 tcp 1040 ------- 0 4.3 9.0 12 19
r 0.349672 0 9 tcp 1040 ------- 0 4.3 9.0 13 20
r 0.350504 0 9 tcp 1040 ------- 0 4.3 9.0 14 21
r 0.356154 4 3 tcp 1040 ------- 0 4.3 9.0 15 30
r 0.356237 4 3 tcp 1040 ------- 0 4.3 9.0 16 31
r 0.356537 3 2 tcp 1040 ------- 0 4.3 9.0 15 30
r 0.35662 3 2 tcp 1040 ------- 0 4.3 9.0 16 31
r 0.356945 2 1 tcp 1040 ------- 0 4.3 9.0 15 30
r 0.356986 4 3 tcp 1040 ------- 0 4.3 9.0 17 32
r 0.357069 4 3 tcp 1040 ------- 0 4.3 9.0 18 33
r 0.357153 2 1 tcp 1040 ------- 0 4.3 9.0 16 31
r 0.357369 3 2 tcp 1040 ------- 0 4.3 9.0 17 32
r 0.357452 3 2 tcp 1040 ------- 0 4.3 9.0 18 33
r 0.357777 2 1 tcp 1040 ------- 0 4.3 9.0 17 32
r 0.357818 4 3 tcp 1040 ------- 0 4.3 9.0 19 34
r 0.357901 4 3 tcp 1040 ------- 0 4.3 9.0 20 35
r 0.357977 1 0 tcp 1040 ------- 0 4.3 9.0 15 30
r 0.357985 2 1 tcp 1040 ------- 0 4.3 9.0 18 33
r 0.358201 3 2 tcp 1040 ------- 0 4.3 9.0 19 34
r 0.358284 3 2 tcp 1040 ------- 0 4.3 9.0 20 35
r 0.358609 2 1 tcp 1040 ------- 0 4.3 9.0 19 34
r 0.35865 4 3 tcp 1040 ------- 0 4.3 9.0 21 36
r 0.358733 4 3 tcp 1040 ------- 0 4.3 9.0 22 37
r 0.358809 1 0 tcp 1040 ------- 0 4.3 9.0 16 31
r 0.358817 2 1 tcp 1040 ------- 0 4.3 9.0 20 35
r 0.359033 3 2 tcp 1040 ------- 0 4.3 9.0 21 36
r 0.359116 3 2 tcp 1040 ------- 0 4.3 9.0 22 37
r 0.359441 2 1 tcp 1040 ------- 0 4.3 9.0 21 36
r 0.359482 4 3 tcp 1040 ------- 0 4.3 9.0 23 38
r 0.359565 4 3 tcp 1040 ------- 0 4.3 9.0 24 39
r 0.359641 1 0 tcp 1040 ------- 0 4.3 9.0 17 32
r 0.359649 2 1 tcp 1040 ------- 0 4.3 9.0 22 37
r 0.359865 3 2 tcp 1040 ------- 0 4.3 9.0 23 38
r 0.359948 3 2 tcp 1040 ------- 0 4.3 9.0 24 39
r 0.360273 2 1 tcp 1040 ------- 0 4.3 9.0 23 38
r 0.360314 4 3 tcp 1040 ------- 0 4.3 9.0 25 40
r 0.360397 4 3 tcp 1040 ------- 0 4.3 9.0 26 41
r 0.360473 1 0 tcp 1040 ------- 0 4.3 9.0 18 33
r 0.360481 2 1 tcp 1040 ------- 0 4.3 9.0 24 39
r 0.360697 3 2 tcp 1040 ------- 0 4.3 9.0 25 40
r 0.36078 3 2 tcp 1040 ------- 0 4.3 9.0 26 41
r 0.361105 2 1 tcp 1040 ------- 0 4.3 9.0 25 40
r 0.361146 4 3 tcp 1040 ------- 0 4.3 9.0 27 42
r 0.361229 4 3 tcp 1040 ------- 0 4.3 9.0 28 43
r 0.361305 1 0 tcp 1040 ------- 0 4.3 9.0 19 34
r 0.361313 2 1 tcp 1040 ------- 0 4.3 9.0 26 41
r 0.361529 3 2 tcp 1040 ------- 0 4.3 9.0 27 42
r 0.361612 3 2 tcp 1040 ------- 0 4.3 9.0 28 43
r 0.361937 2 1 tcp 1040 ------- 0 4.3 9.0 27 42
r 0.361978 4 3 tcp 1040 ------- 0 4.3 9.0 29 44
r 0.362061 4 3 tcp 1040 ------- 0 4.3 9.0 30 45
r 0.362137 1 0 tcp 1040 ------- 0 4.3 9.0 20 35
r 0.362145 2 1 tcp 1040 ------- 0 4.3 9.0 28 43
r 0.362361 3 2 tcp 1040 ------- 0 4.3 9.0 29 44
r 0.362444 3 2 tcp 1040 ------- 0 4.3 9.0 30 45
r 0.362769 2 1 tcp 1040 ------- 0 4.3 9.0 29 44
r 0.362969 1 0 tcp 1040 ------- 0 4.3 9.0 21 36
r 0.362977 2 1 tcp 1040 ------- 0 4.3 9.0 30 45
r 0.363801 1 0 tcp 1040 ------- 0 4.3 9.0 22 37
r 0.364633 1 0 tcp 1040 ------- 0 4.3 9.0 23 38
r 0.365465 1 0 tcp 1040 ------- 0 4.3 9.0 24 39
r 0.366297 1 0 tcp 1040 ------- 0 4.3 9.0 25 40
r 0.367129 1 0 tcp 1040 ------- 0 4.3 9.0 26 41
r 0.367961 1 0 tcp 1040 ------- 0 4.3 9.0 27 42
r 0.368793 1 0 tcp 1040 ------- 0 4.3 9.0 28 43
r 0.368809 0 9 tcp 1040 ------- 0 4.3 9.0 15 30
r 0.369625 1 0 tcp 1040 ------- 0 4.3 9.0 29 44
r 0.369641 0 9 tcp 1040 ------- 0 4.3 9.0 16 31
r 0.370457 1 0 tcp 1040 ------- 0 4.3 9.0 30 45
r 0.370473 0 9 tcp 1040 ------- 0 4.3 9.0 17 32
r 0.371305 0 9 tcp 1040 ------- 0 4.3 9.0 18 33
r 0.372137 0 9 tcp 1040 ------- 0 4.3 9.0 19 34
r 0.372969 0 9 tcp 1040 ------- 0 4.3 9.0 20 35
r 0.373801 0 9 tcp 1040 ------- 0 4.3 9.0 21 36
r 0.374633 0 9 tcp 1040 ------- 0 4.3 9.0 22 37
r 0.375465 0 9 tcp 1040 ------- 0 4.3 9.0 23 38
r 0.376297 0 9 tcp 1040 ------- 0 4.3 9.0 24 39
r 0.377129 0 9 tcp 1040 ------- 0 4.3 9.0 25 40
r 0.377961 0 9 tcp 1040 ------- 0 4.3 9.0 26 41
r 0.378793 0 9 tcp 1040 ------- 0 4.3 9.0 27 42
r 0.379625 0 9 tcp 1040 ------- 0 4.3 9.0 28 43
r 0.380283 4 3 tcp 1040 ------- 0 4.3 9.0 31 60
r 0.380366 4 3 tcp 1040 ------- 0 4.3 9.0 32 61
r 0.380457 0 9 tcp 1040 ------- 0 4.3 9.0 29 44
r 0.380666 3 2 tcp 1040 ------- 0 4.3 9.0 31 60
r 0.380749 3 2 tcp 1040 ------- 0 4.3 9.0 32 61
r 0.381074 2 1 tcp 1040 ------- 0 4.3 9.0 31 60
r 0.381115 4 3 tcp 1040 ------- 0 4.3 9.0 33 63
r 0.381198 4 3 tcp 1040 ------- 0 4.3 9.0 34 64
r 0.381282 2 1 tcp 1040 ------- 0 4.3 9.0 32 61
r 0.381289 0 9 tcp 1040 ------- 0 4.3 9.0 30 45
r 0.381498 3 2 tcp 1040 ------- 0 4.3 9.0 33 63
r 0.381581 3 2 tcp 1040 ------- 0 4.3 9.0 34 64
r 0.381906 2 1 tcp 1040 ------- 0 4.3 9.0 33 63
r 0.381947 4 3 tcp 1040 ------- 0 4.3 9.0 35 66
r 0.38203 4 3 tcp 1040 ------- 0 4.3 9.0 36 67
r 0.382106 1 0 tcp 1040 ------- 0 4.3 9.0 31 60
r 0.382114 2 1 tcp 1040 ------- 0 4.3 9.0 34 64
r 0.38233 3 2 tcp 1040 ------- 0 4.3 9.0 35 66
r 0.382413 3 2 tcp 1040 ------- 0 4.3 9.0 36 67
r 0.382738 2 1 tcp 1040 ------- 0 4.3 9.0 35 66
r 0.382779 4 3 tcp 1040 ------- 0 4.3 9.0 37 68
r 0.382862 4 3 tcp 1040 ------- 0 4.3 9.0 38 69
r 0.382938 1 0 tcp 1040 ------- 0 4.3 9.0 32 61
r 0.382946 2 1 tcp 1040 ------- 0 4.3 9.0 36 67
r 0.383162 3 2 tcp 1040 ------- 0 4.3 9.0 37 68
r 0.383245 3 2 tcp 1040 ------- 0 4.3 9.0 38 69
r 0.38357 2 1 tcp 1040 ------- 0 4.3 9.0 37 68
r 0.383611 4 3 tcp 1040 ------- 0 4.3 9.0 39 70
r 0.38377 1 0 tcp 1040 ------- 0 4.3 9.0 33 63
r 0.383778 2 1 tcp 1040 ------- 0 4.3 9.0 38 69
r 0.383994 3 2 tcp 1040 ------- 0 4.3 9.0 39 70
r 0.384402 2 1 tcp 1040 ------- 0 4.3 9.0 39 70
r 0.384443 4 3 tcp 1040 ------- 0 4.3 9.0 40 71
r 0.384602 1 0 tcp 1040 ------- 0 4.3 9.0 34 64
r 0.384826 3 2 tcp 1040 ------- 0 4.3 9.0 40 71
r 0.385234 2 1 tcp 1040 ------- 0 4.3 9.0 40 71
r 0.385275 4 3 tcp 1040 ------- 0 4.3 9.0 41 72
r 0.385434 1 0 tcp 1040 ------- 0 4.3 9.0 35 66
r 0.385658 3 2 tcp 1040 ------- 0 4.3 9.0 41 72
r 0.386066 2 1 tcp 1040 ------- 0 4.3 9.0 41 72
r 0.386107 4 3 tcp 1040 ------- 0 4.3 9.0 42 73
r 0.386266 1 0 tcp 1040 ------- 0 4.3 9.0 36 67
r 0.38649 3 2 tcp 1040 ------- 0 4.3 9.0 42 73
r 0.386898 2 1 tcp 1040 ------- 0 4.3 9.0 42 73
r 0.386939 4 3 tcp 1040 ------- 0 4.3 9.0 43 74
r 0.387098 1 0 tcp 1040 ------- 0 4.3 9.0 37 68
r 0.387322 3 2 tcp 1040 ------- 0 4.3 9.0 43 74
r 0.38773 2 1 tcp 1040 ------- 0 4.3 9.0 43 74
r 0.387771 4 3 tcp 1040 ------- 0 4.3 9.0 44 75
r 0.38793 1 0 tcp 1040 ------- 0 4.3 9.0 38 69
r 0.388154 3 2 tcp 1040 ------- 0 4.3 9.0 44 75
r 0.388562 2 1 tcp 1040 ------- 0 4.3 9.0 44 75
r 0.388603 4 3 tcp 1040 ------- 0 4.3 9.0 45 76
r 0.388762 1 0 tcp 1040 ------- 0 4.3 9.0 39 70
r 0.388986 3 2 tcp 1040 ------- 0 4.3 9.0 45 76
r 0.389394 2 1 tcp 1040 ------- 0 4.3 9.0 45 76
r 0.389435 4 3 tcp 1040 ------- 0 4.3 9.0 46 77
r 0.389594 1 0 tcp 1040 ------- 0 4.3 9.0 40 71
r 0.389818 3 2 tcp 1040 ------- 0 4.3 9.0 46 77
r 0.390226 2 1 tcp 1040 ------- 0 4.3 9.0 46 77
r 0.390267 4 3 tcp 1040 ------- 0 4.3 9.0 47 78
r 0.390426 1 0 tcp 1040 ------- 0 4.3 9.0 41 72
r 0.39065 3 2 tcp 1040 ------- 0 4.3 9.0 47 78
r 0.391058 2 1 tcp 1040 ------- 0 4.3 9.0 47 78
r 0.391099 4 3 tcp 1040 ------- 0 4.3 9.0 48 79
r 0.391258 1 0 tcp 1040 ------- 0 4.3 9.0 42 73
r 0.391482 3 2 tcp 1040 ------- 0 4.3 9.0 48 79
r 0.39189 2 1 tcp 1040 ------- 0 4.3 9.0 48 79
r 0.391931 4 3 tcp 1040 ------- 0 4.3 9.0 49 80
r 0.39209 1 0 tcp 1040 ------- 0 4.3 9.0 43 74
r 0.392314 3 2 tcp 1040 ------- 0 4.3 9.0 49 80
r 0.392722 2 1 tcp 1040 ------- 0 4.3 9.0 49 80
r 0.392763 4 3 tcp 1040 ------- 0 4.3 9.0 50 81
r 0.392922 1 0 tcp 1040 ------- 0 4.3 9.0 44 75
r 0.392938 0 9 tcp 1040 ------- 0 4.3 9.0 31 60
r 0.393146 3 2 tcp 1040 ------- 0 4.3 9.0 50 81
r 0.393554 2 1 tcp 1040 ------- 0 4.3 9.0 50 81
r 0.393754 1 0 tcp 1040 ------- 0 4.3 9.0 45 76
r 0.39377 0 9 tcp 1040 ------- 0 4.3 9.0 32 61
r 0.394586 1 0 tcp 1040 ------- 0 4.3 9.0 46 77
r 0.394602 0 9 tcp 1040 ------- 0 4.3 9.0 33 63
r 0.395418 1 0 tcp 1040 ------- 0 4.3 9.0 47 78
r 0.395434 0 9 tcp 1040 ------- 0 4.3 9.0 34 64
r 0.39625 1 0 tcp 1040 ------- 0 4.3 9.0 48 79
r 0.396266 0 9 tcp 1040 ------- 0 4.3 9.0 35 66
r 0.397082 1 0 tcp 1040 ------- 0 4.3 9.0 49 80
r 0.397098 0 9 tcp 1040 ------- 0 4.3 9.0 36 67
r 0.397914 1 0 tcp 1040 ------- 0 4.3 9.0 50 81
r 0.39793 0 9 tcp 1040 ------- 0 4.3 9.0 37 68
r 0.398762 0 9 tcp 1040 ------- 0 4.3 9.0 38 69
r 0.399594 0 9 tcp 1040 ------- 0 4.3 9.0 39 70
r 0.400426 0 9 tcp 1040 ------- 0 4.3 9.0 40 71
r 0.401258 0 9 tcp 1040 ------- 0 4.3 9.0 41 72
r 0.40209 0 9 tcp 1040 ------- 0 4.3 9.0 42 73
r 0.402922 0 9 tcp 1040 ------- 0 4.3 9.0 43 74
r 0.403754 0 9 tcp 1040 ------- 0 4.3 9.0 44 75
r 0.404411 4 3 tcp 1040 ------- 0 4.3 9.0 51 96
r 0.404586 0 9 tcp 1040 ------- 0 4.3 9.0 45 76
r 0.404795 3 2 tcp 1040 ------- 0 4.3 9.0 51 96
r 0.405203 2 1 tcp 1040 ------- 0 4.3 9.0 51 96
r 0.405243 4 3 tcp 1040 ------- 0 4.3 9.0 52 98
r 0.405418 0 9 tcp 1040 ------- 0 4.3 9.0 46 77
r 0.405627 3 2 tcp 1040 ------- 0 4.3 9.0 52 98
r 0.406035 2 1 tcp 1040 ------- 0 4.3 9.0 52 98
r 0.406075 4 3 tcp 1040 ------- 0 4.3 9.0 53 100
r 0.406235 1 0 tcp 1040 ------- 0 4.3 9.0 51 96
r 0.40625 0 9 tcp 1040 ------- 0 4.3 9.0 47 78
r 0.406459 3 2 tcp 1040 ------- 0 4.3 9.0 53 100
r 0.406867 2 1 tcp 1040 ------- 0 4.3 9.0 53 100
r 0.406907 4 3 tcp 1040 ------- 0 4.3 9.0 54 102
r 0.407067 1 0 tcp 1040 ------- 0 4.3 9.0 52 98
r 0.407082 0 9 tcp 1040 ------- 0 4.3 9.0 48 79
r 0.407291 3 2 tcp 1040 ------- 0 4.3 9.0 54 102
r 0.407699 2 1 tcp 1040 ------- 0 4.3 9.0 54 102
r 0.407739 4 3 tcp 1040 ------- 0 4.3 9.0 55 104
r 0.407899 1 0 tcp 1040 ------- 0 4.3 9.0 53 100
r 0.407914 0 9 tcp 1040 ------- 0 4.3 9.0 49 80
r 0.408123 3 2 tcp 1040 ------- 0 4.3 9.0 55 104
r 0.408531 2 1 tcp 1040 ------- 0 4.3 9.0 55 104
r 0.408571 4 3 tcp 1040 ------- 0 4.3 9.0 56 106
r 0.408731 1 0 tcp 1040 ------- 0 4.3 9.0 54 102
r 0.408746 0 9 tcp 1040 ------- 0 4.3 9.0 50 81
r 0.408955 3 2 tcp 1040 ------- 0 4.3 9.0 56 106
r 0.409363 2 1 tcp 1040 ------- 0 4.3 9.0 56 106
r 0.409403 4 3 tcp 1040 ------- 0 4.3 9.0 57 108
r 0.409563 1 0 tcp 1040 ------- 0 4.3 9.0 55 104
r 0.409787 3 2 tcp 1040 ------- 0 4.3 9.0 57 108
r 0.410195 2 1 tcp 1040 ------- 0 4.3 9.0 57 108
r 0.410235 4 3 tcp 1040 ------- 0 4.3 9.0 58 109
r 0.410395 1 0 tcp 1040 ------- 0 4.3 9.0 56 106
r 0.410619 3 2 tcp 1040 ------- 0 4.3 9.0 58 109
r 0.411027 2 1 tcp 1040 ------- 0 4.3 9.0 58 109
r 0.411067 4 3 tcp 1040 ------- 0 4.3 9.0 59 110
r 0.411227 1 0 tcp 1040 ------- 0 4.3 9.0 57 108
r 0.411451 3 2 tcp 1040 ------- 0 4.3 9.0 59 110
r 0.411859 2 1 tcp 1040 ------- 0 4.3 9.0 59 110
r 0.411899 4 3 tcp 1040 ------- 0 4.3 9.0 60 111
r 0.412059 1 0 tcp 1040 ------- 0 4.3 9.0 58 109
r 0.412283 3 2 tcp 1040 ------- 0 4.3 9.0 60 111
r 0.412691 2 1 tcp 1040 ------- 0 4.3 9.0 60 111
r 0.412731 4 3 tcp 1040 ------- 0 4.3 9.0 61 112
r 0.412891 1 0 tcp 1040 ------- 0 4.3 9.0 59 110
r 0.413115 3 2 tcp 1040 ------- 0 4.3 9.0 61 112
r 0.413523 2 1 tcp 1040 ------- 0 4.3 9.0 61 112
r 0.413563 4 3 tcp 1040 ------- 0 4.3 9.0 62 113
r 0.413723 1 0 tcp 1040 ------- 0 4.3 9.0 60 111
r 0.413947 3 2 tcp 1040 ------- 0 4.3 9.0 62 113
r 0.414355 2 1 tcp 1040 ------- 0 4.3 9.0 62 113
r 0.414395 4 3 tcp 1040 ------- 0 4.3 9.0 63 114
r 0.414555 1 0 tcp 1040 ------- 0 4.3 9.0 61 112
r 0.414779 3 2 tcp 1040 ------- 0 4.3 9.0 63 114
r 0.415187 2 1 tcp 1040 ------- 0 4.3 9.0 63 114
r 0.415227 4 3 tcp 1040 ------- 0 4.3 9.0 64 115
r 0.415387 1 0 tcp 1040 ------- 0 4.3 9.0 62 113
r 0.415611 3 2 tcp 1040 ------- 0 4.3 9.0 64 115
r 0.416019 2 1 tcp 1040 ------- 0 4.3 9.0 64 115
r 0.416059 4 3 tcp 1040 ------- 0 4.3 9.0 65 116
r 0.416219 1 0 tcp 1040 ------- 0 4.3 9.0 63 114
r 0.416443 3 2 tcp 1040 ------- 0 4.3 9.0 65 116
r 0.416851 2 1 tcp 1040 ------- 0 4.3 9.0 65 116
r 0.416891 4 3 tcp 1040 ------- 0 4.3 9.0 66 117
r 0.417051 1 0 tcp 1040 ------- 0 4.3 9.0 64 115
r 0.417067 0 9 tcp 1040 ------- 0 4.3 9.0 51 96
r 0.417275 3 2 tcp 1040 ------- 0 4.3 9.0 66 117
r 0.417683 2 1 tcp 1040 ------- 0 4.3 9.0 66 117
r 0.417723 4 3 tcp 1040 ------- 0 4.3 9.0 67 119
r 0.417883 1 0 tcp 1040 ------- 0 4.3 9.0 65 116
r 0.417899 0 9 tcp 1040 ------- 0 4.3 9.0 52 98
r 0.418107 3 2 tcp 1040 ------- 0 4.3 9.0 67 119
r 0.418515 2 1 tcp 1040 ------- 0 4.3 9.0 67 119
r 0.418555 4 3 tcp 1040 ------- 0 4.3 9.0 68 121
r 0.418715 1 0 tcp 1040 ------- 0 4.3 9.0 66 117
r 0.418731 0 9 tcp 1040 ------- 0 4.3 9.0 53 100
r 0.418939 3 2 tcp 1040 ------- 0 4.3 9.0 68 121
r 0.419347 2 1 tcp 1040 ------- 0 4.3 9.0 68 121
r 0.419387 4 3 tcp 1040 ------- 0 4.3 9.0 69 123
r 0.419547 1 0 tcp 1040 ------- 0 4.3 9.0 67 119
r 0.419563 0 9 tcp 1040 ------- 0 4.3 9.0 54 102
r 0.419771 3 2 tcp 1040 ------- 0 4.3 9.0 69 123
r 0.420179 2 1 tcp 1040 ------- 0 4.3 9.0 69 123
r 0.420219 4 3 tcp 1040 ------- 0 4.3 9.0 70 125
r 0.420379 1 0 tcp 1040 ------- 0 4.3 9.0 68 121
r 0.420395 0 9 tcp 1040 ------- 0 4.3 9.0 55 104
r 0.420603 3 2 tcp 1040 ------- 0 4.3 9.0 70 125
r 0.421011 2 1 tcp 1040 ------- 0 4.3 9.0 70 125
r 0.421211 1 0 tcp 1040 ------- 0 4.3 9.0 69 123
r 0.421227 0 9 tcp 1040 ------- 0 4.3 9.0 56 106
r 0.422043 1 0 tcp 1040 ------- 0 4.3 9.0 70 125
r 0.422059 0 9 tcp 1040 ------- 0 4.3 9.0 57 108
r 0.422891 0 9 tcp 1040 ------- 0 4.3 9.0 58 109
r 0.423723 0 9 tcp 1040 ------- 0 4.3 9.0 59 110
r 0.424555 0 9 tcp 1040 ------- 0 4.3 9.0 60 111
r 0.425387 0 9 tcp 1040 ------- 0 4.3 9.0 61 112
r 0.426219 0 9 tcp 1040 ------- 0 4.3 9.0 62 113
r 0.427051 0 9 tcp 1040 ------- 0 4.3 9.0 63 114
r 0.427883 0 9 tcp 1040 ------- 0 4.3 9.0 64 115
r 0.42854 4 3 tcp 1040 ------- 0 4.3 9.0 71 136
r 0.428715 0 9 tcp 1040 ------- 0 4.3 9.0 65 116
r 0.428923 3 2 tcp 1040 ------- 0 4.3 9.0 71 136
r 0.429331 2 1 tcp 1040 ------- 0 4.3 9.0 71 136
r 0.429372 4 3 tcp 1040 ------- 0 4.3 9.0 72 138
r 0.429547 0 9 tcp 1040 ------- 0 4.3 9.0 66 117
r 0.429755 3 2 tcp 1040 ------- 0 4.3 9.0 72 138
r 0.430163 2 1 tcp 1040 ------- 0 4.3 9.0 72 138
r 0.430204 4 3 tcp 1040 ------- 0 4.3 9.0 73 140
r 0.430363 1 0 tcp 1040 ------- 0 4.3 9.0 71 136
r 0.430379 0 9 tcp 1040 ------- 0 4.3 9.0 67 119
r 0.430587 3 2 tcp 1040 ------- 0 4.3 9.0 73 140
r 0.430995 2 1 tcp 1040 ------- 0 4.3 9.0 73 140
r 0.431036 4 3 tcp 1040 ------- 0 4.3 9.0 74 142
r 0.431195 1 0 tcp 1040 ------- 0 4.3 9.0 72 138
r 0.431211 0 9 tcp 1040 ------- 0 4.3 9.0 68 121
r 0.431419 3 2 tcp 1040 ------- 0 4.3 9.0 74 142
r 0.431827 2 1 tcp 1040 ------- 0 4.3 9.0 74 142
r 0.431868 4 3 tcp 1040 ------- 0 4.3 9.0 75 144
r 0.432027 1 0 tcp 1040 ------- 0 4.3 9.0 73 140
r 0.432043 0 9 tcp 1040 ------- 0 4.3 9.0 69 123
r 0.432251 3 2 tcp 1040 ------- 0 4.3 9.0 75 144
r 0.432659 2 1 tcp 1040 ------- 0 4.3 9.0 75 144
r 0.4327 4 3 tcp 1040 ------- 0 4.3 9.0 76 146
r 0.432859 1 0 tcp 1040 ------- 0 4.3 9.0 74 142
r 0.432875 0 9 tcp 1040 ------- 0 4.3 9.0 70 125
r 0.433083 3 2 tcp 1040 ------- 0 4.3 9.0 76 146
r 0.433491 2 1 tcp 1040 ------- 0 4.3 9.0 76 146
r 0.433532 4 3 tcp 1040 ------- 0 4.3 9.0 77 148
r 0.433691 1 0 tcp 1040 ------- 0 4.3 9.0 75 144
r 0.433915 3 2 tcp 1040 ------- 0 4.3 9.0 77 148
r 0.434323 2 1 tcp 1040 ------- 0 4.3 9.0 77 148
r 0.434364 4 3 tcp 1040 ------- 0 4.3 9.0 78 149
r 0.434523 1 0 tcp 1040 ------- 0 4.3 9.0 76 146
r 0.434747 3 2 tcp 1040 ------- 0 4.3 9.0 78 149
r 0.435155 2 1 tcp 1040 ------- 0 4.3 9.0 78 149
r 0.435196 4 3 tcp 1040 ------- 0 4.3 9.0 79 150
r 0.435355 1 0 tcp 1040 ------- 0 4.3 9.0 77 148
r 0.435579 3 2 tcp 1040 ------- 0 4.3 9.0 79 150
r 0.435987 2 1 tcp 1040 ------- 0 4.3 9.0 79 150
r 0.436028 4 3 tcp 1040 ------- 0 4.3 9.0 80 151
r 0.436187 1 0 tcp 1040 ------- 0 4.3 9.0 78 149
r 0.436411 3 2 tcp 1040 ------- 0 4.3 9.0 80 151
r 0.436819 2 1 tcp 1040 ------- 0 4.3 9.0 80 151
r 0.43686 4 3 tcp 1040 ------- 0 4.3 9.0 81 152
r 0.437019 1 0 tcp 1040 ------- 0 4.3 9.0 79 150
r 0.437243 3 2 tcp 1040 ------- 0 4.3 9.0 81 152
r 0.437651 2 1 tcp 1040 ------- 0 4.3 9.0 81 152
r 0.437692 4 3 tcp 1040 ------- 0 4.3 9.0 82 153
r 0.437851 1 0 tcp 1040 ------- 0 4.3 9.0 80 151
r 0.438075 3 2 tcp 1040 ------- 0 4.3 9.0 82 153
r 0.438483 2 1 tcp 1040 ------- 0 4.3 9.0 82 153
r 0.438524 4 3 tcp 1040 ------- 0 4.3 9.0 83 154
r 0.438683 1 0 tcp 1040 ------- 0 4.3 9.0 81 152
r 0.438907 3 2 tcp 1040 ------- 0 4.3 9.0 83 154
r 0.439315 2 1 tcp 1040 ------- 0 4.3 9.0 83 154
r 0.439356 4 3 tcp 1040 ------- 0 4.3 9.0 84 155
r 0.439515 1 0 tcp 1040 ------- 0 4.3 9.0 82 153
r 0.439739 3 2 tcp 1040 ------- 0 4.3 9.0 84 155
r 0.440147 2 1 tcp 1040 ------- 0 4.3 9.0 84 155
r 0.440188 4 3 tcp 1040 ------- 0 4.3 9.0 85 156
r 0.440347 1 0 tcp 1040 ------- 0 4.3 9.0 83 154
r 0.440571 3 2 tcp 1040 ------- 0 4.3 9.0 85 156
r 0.440979 2 1 tcp 1040 ------- 0 4.3 9.0 85 156
r 0.44102 4 3 tcp 1040 ------- 0 4.3 9.0 86 157
r 0.441179 1 0 tcp 1040 ------- 0 4.3 9.0 84 155
r 0.441195 0 9 tcp 1040 ------- 0 4.3 9.0 71 136
r 0.441403 3 2 tcp 1040 ------- 0 4.3 9.0 86 157
r 0.441811 2 1 tcp 1040 ------- 0 4.3 9.0 86 157
r 0.441852 4 3 tcp 1040 ------- 0 4.3 9.0 87 159
r 0.442011 1 0 tcp 1040 ------- 0 4.3 9.0 85 156
r 0.442027 0 9 tcp 1040 ------- 0 4.3 9.0 72 138
r 0.442235 3 2 tcp 1040 ------- 0 4.3 9.0 87 159
r 0.442643 2 1 tcp 1040 ------- 0 4.3 9.0 87 159
r 0.442684 4 3 tcp 1040 ------- 0 4.3 9.0 88 161
r 0.442843 1 0 tcp 1040 ------- 0 4.3 9.0 86 157
r 0.442859 0 9 tcp 1040 ------- 0 4.3 9.0 73 140
r 0.443067 3 2 tcp 1040 ------- 0 4.3 9.0 88 161
r 0.443475 2 1 tcp 1040 ------- 0 4.3 9.0 88 161
r 0.443516 4 3 tcp 1040 ------- 0 4.3 9.0 89 163
r 0.443675 1 0 tcp 1040 ------- 0 4.3 9.0 87 159
r 0.443691 0 9 tcp 1040 ------- 0 4.3 9.0 74 142
r 0.443899 3 2 tcp 1040 ------- 0 4.3 9.0 89 163
r 0.444307 2 1 tcp 1040 ------- 0 4.3 9.0 89 163
r 0.444348 4 3 tcp 1040 ------- 0 4.3 9.0 90 165
r 0.444507 1 0 tcp 1040 ------- 0 4.3 9.0 88 161
r 0.444523 0 9 tcp 1040 ------- 0 4.3 9.0 75 144
r 0.444731 3 2 tcp 1040 ------- 0 4.3 9.0 90 165
r 0.445139 2 1 tcp 1040 ------- 0 4.3 9.0 90 165
r 0.445339 1 0 tcp 1040 ------- 0 4.3 9.0 89 163
r 0.445355 0 9 tcp 1040 ------- 0 4.3 9.0 76 146
r 0.446171 1 0 tcp 1040 ------- 0 4.3 9.0 90 165
r 0.446187 0 9 tcp 1040 ------- 0 4.3 9.0 77 148
r 0.447019 0 9 tcp 1040 ------- 0 4.3 9.0 78 149
r 0.447851 0 9 tcp 1040 ------- 0 4.3 9.0 79 150
r 0.448683 0 9 tcp 1040 ------- 0 4.3 9.0 80 151
r 0.449515 0 9 tcp 1040 ------- 0 4.3 9.0 81 152
r 0.450347 0 9 tcp 1040 ------- 0 4.3 9.0 82 153
r 0.451179 0 9 tcp 1040 ------- 0 4.3 9.0 83 154
r 0.452011 0 9 tcp 1040 ------- 0 4.3 9.0 84 155
r 0.452669 4 3 tcp 1040 ------- 0 4.3 9.0 91 176
r 0.452843 0 9 tcp 1040 ------- 0 4.3 9.0 85 156
r 0.453052 3 2 tcp 1040 ------- 0 4.3 9.0 91 176
r 0.45346 2 1 tcp 1040 ------- 0 4.3 9.0 91 176
r 0.453501 4 3 tcp 1040 ------- 0 4.3 9.0 92 178
r 0.453675 0 9 tcp 1040 ------- 0 4.3 9.0 86 157
r 0.453884 3 2 tcp 1040 ------- 0 4.3 9.0 92 178
r 0.454292 2 1 tcp 1040 ------- 0 4.3 9.0 92 178
r 0.454333 4 3 tcp 1040 ------- 0 4.3 9.0 93 180
r 0.454492 1 0 tcp 1040 ------- 0 4.3 9.0 91 176
r 0.454507 0 9 tcp 1040 ------- 0 4.3 9.0 87 159
r 0.454716 3 2 tcp 1040 ------- 0 4.3 9.0 93 180
r 0.455124 2 1 tcp 1040 ------- 0 4.3 9.0 93 180
r 0.455165 4 3 tcp 1040 ------- 0 4.3 9.0 94 182
r 0.455324 1 0 tcp 1040 ------- 0 4.3 9.0 92 178
r 0.455339 0 9 tcp 1040 ------- 0 4.3 9.0 88 161
r 0.455548 3 2 tcp 1040 ------- 0 4.3 9.0 94 182
r 0.455956 2 1 tcp 1040 ------- 0 4.3 9.0 94 182
r 0.455997 4 3 tcp 1040 ------- 0 4.3 9.0 95 184
r 0.456156 1 0 tcp 1040 ------- 0 4.3 9.0 93 180
r 0.456171 0 9 tcp 1040 ------- 0 4.3 9.0 89 163
r 0.45638 3 2 tcp 1040 ------- 0 4.3 9.0 95 184
r 0.456788 2 1 tcp 1040 ------- 0 4.3 9.0 95 184
r 0.456829 4 3 tcp 1040 ------- 0 4.3 9.0 96 186
r 0.456988 1 0 tcp 1040 ------- 0 4.3 9.0 94 182
r 0.457003 0 9 tcp 1040 ------- 0 4.3 9.0 90 165
r 0.457212 3 2 tcp 1040 ------- 0 4.3 9.0 96 186
r 0.45762 2 1 tcp 1040 ------- 0 4.3 9.0 96 186
r 0.457661 4 3 tcp 1040 ------- 0 4.3 9.0 97 188
r 0.45782 1 0 tcp 1040 ------- 0 4.3 9.0 95 184
r 0.458044 3 2 tcp 1040 ------- 0 4.3 9.0 97 188
r 0.458452 2 1 tcp 1040 ------- 0 4.3 9.0 97 188
r 0.458493 4 3 tcp 1040 ------- 0 4.3 9.0 98 189
r 0.458652 1 0 tcp 1040 ------- 0 4.3 9.0 96 186
r 0.458876 3 2 tcp 1040 ------- 0 4.3 9.0 98 189
r 0.459284 2 1 tcp 1040 ------- 0 4.3 9.0 98 189
r 0.459325 4 3 tcp 1040 ------- 0 4.3 9.0 99 190
r 0.459484 1 0 tcp 1040 ------- 0 4.3 9.0 97 188
r 0.459708 3 2 tcp 1040 ------- 0 4.3 9.0 99 190
r 0.460116 2 1 tcp 1040 ------- 0 4.3 9.0 99 190
r 0.460157 4 3 tcp 1040 ------- 0 4.3 9.0 100 191
r 0.460316 1 0 tcp 1040 ------- 0 4.3 9.0 98 189
r 0.46054 3 2 tcp 1040 ------- 0 4.3 9.0 100 191
r 0.460948 2 1 tcp 1040 ------- 0 4.3 9.0 100 191
r 0.460989 4 3 tcp 1040 ------- 0 4.3 9.0 101 192
r 0.461148 1 0 tcp 1040 ------- 0 4.3 9.0 99 190
r 0.461372 3 2 tcp 1040 ------- 0 4.3 9.0 101 192
r 0.46178 2 1 tcp 1040 ------- 0 4.3 9.0 101 192
r 0.461821 4 3 tcp 1040 ------- 0 4.3 9.0 102 193
r 0.46198 1 0 tcp 1040 ------- 0 4.3 9.0 100 191
r 0.462204 3 2 tcp 1040 ------- 0 4.3 9.0 102 193
r 0.462612 2 1 tcp 1040 ------- 0 4.3 9.0 102 193
r 0.462653 4 3 tcp 1040 ------- 0 4.3 9.0 103 194
r 0.462812 1 0 tcp 1040 ------- 0 4.3 9.0 101 192
r 0.463036 3 2 tcp 1040 ------- 0 4.3 9.0 103 194
r 0.463444 2 1 tcp 1040 ------- 0 4.3 9.0 103 194
r 0.463485 4 3 tcp 1040 ------- 0 4.3 9.0 104 195
r 0.463644 1 0 tcp 1040 ------- 0 4.3 9.0 102 193
r 0.463868 3 2 tcp 1040 ------- 0 4.3 9.0 104 195
r 0.464276 2 1 tcp 1040 ------- 0 4.3 9.0 104 195
r 0.464317 4 3 tcp 1040 ------- 0 4.3 9.0 105 196
r 0.464476 1 0 tcp 1040 ------- 0 4.3 9.0 103 194
r 0.4647 3 2 tcp 1040 ------- 0 4.3 9.0 105 196
r 0.465108 2 1 tcp 1040 ------- 0 4.3 9.0 105 196
r 0.465149 4 3 tcp 1040 ------- 0 4.3 9.0 106 197
r 0.465308 1 0 tcp 1040 ------- 0 4.3 9.0 104 195
r 0.465324 0 9 tcp 1040 ------- 0 4.3 9.0 91 176
r 0.465532 3 2 tcp 1040 ------- 0 4.3 9.0 106 197
r 0.46594 2 1 tcp 1040 ------- 0 4.3 9.0 106 197
r 0.465981 4 3 tcp 1040 ------- 0 4.3 9.0 107 199
r 0.46614 1 0 tcp 1040 ------- 0 4.3 9.0 105 196
r 0.466156 0 9 tcp 1040 ------- 0 4.3 9.0 92 178
r 0.466364 3 2 tcp 1040 ------- 0 4.3 9.0 107 199
r 0.466772 2 1 tcp 1040 ------- 0 4.3 9.0 107 199
r 0.466813 4 3 tcp 1040 ------- 0 4.3 9.0 108 201
r 0.466972 1 0 tcp 1040 ------- 0 4.3 9.0 106 197
r 0.466988 0 9 tcp 1040 ------- 0 4.3 9.0 93 180
r 0.467196 3 2 tcp 1040 ------- 0 4.3 9.0 108 201
r 0.467604 2 1 tcp 1040 ------- 0 4.3 9.0 108 201
r 0.467645 4 3 tcp 1040 ------- 0 4.3 9.0 109 203
r 0.467804 1 0 tcp 1040 ------- 0 4.3 9.0 107 199
r 0.46782 0 9 tcp 1040 ------- 0 4.3 9.0 94 182
r 0.468028 3 2 tcp 1040 ------- 0 4.3 9.0 109 203
r 0.468436 2 1 tcp 1040 ------- 0 4.3 9.0 109 203
r 0.468477 4 3 tcp 1040 ------- 0 4.3 9.0 110 205
r 0.468636 1 0 tcp 1040 ------- 0 4.3 9.0 108 201
r 0.468652 0 9 tcp 1040 ------- 0 4.3 9.0 95 184
r 0.46886 3 2 tcp 1040 ------- 0 4.3 9.0 110 205
r 0.469268 2 1 tcp 1040 ------- 0 4.3 9.0 110 205
r 0.469468 1 0 tcp 1040 ------- 0 4.3 9.0 109 203
r 0.469484 0 9 tcp 1040 ------- 0 4.3 9.0 96 186
r 0.4703 1 0 tcp 1040 ------- 0 4.3 9.0 110 205
r 0.470316 0 9 tcp 1040 ------- 0 4.3 9.0 97 188
r 0.471148 0 9 tcp 1040 ------- 0 4.3 9.0 98 189
r 0.47198 0 9 tcp 1040 ------- 0 4.3 9.0 99 190
r 0.472812 0 9 tcp 1040 ------- 0 4.3 9.0 100 191
r 0.473644 0 9 tcp 1040 ------- 0 4.3 9.0 101 192
r 0.474476 0 9 tcp 1040 ------- 0 4.3 9.0 102 193
r 0.475308 0 9 tcp 1040 ------- 0 4.3 9.0 103 194
r 0.47614 0 9 tcp 1040 ------- 0 4.3 9.0 104 195
r 0.476798 4 3 tcp 1040 ------- 0 4.3 9.0 111 216
r 0.476972 0 9 tcp 1040 ------- 0 4.3 9.0 105 196
r 0.477181 3 2 tcp 1040 ------- 0 4.3 9.0 111 216
r 0.477589 2 1 tcp 1040 ------- 0 4.3 9.0 111 216
r 0.47763 4 3 tcp 1040 ------- 0 4.3 9.0 112 218
r 0.477804 0 9 tcp 1040 ------- 0 4.3 9.0 106 197
r 0.478013 3 2 tcp 1040 ------- 0 4.3 9.0 112 218
r 0.478421 2 1 tcp 1040 ------- 0 4.3 9.0 112 218
r 0.478462 4 3 tcp 1040 ------- 0 4.3 9.0 113 220
r 0.478621 1 0 tcp 1040 ------- 0 4.3 9.0 111 216
r 0.478636 0 9 tcp 1040 ------- 0 4.3 9.0 107 199
r 0.478845 3 2 tcp 1040 ------- 0 4.3 9.0 113 220
r 0.479253 2 1 tcp 1040 ------- 0 4.3 9.0 113 220
r 0.479294 4 3 tcp 1040 ------- 0 4.3 9.0 114 222
r 0.479453 1 0 tcp 1040 ------- 0 4.3 9.0 112 218
r 0.479468 0 9 tcp 1040 ------- 0 4.3 9.0 108 201
r 0.479677 3 2 tcp 1040 ------- 0 4.3 9.0 114 222
r 0.480085 2 1 tcp 1040 ------- 0 4.3 9.0 114 222
r 0.480126 4 3 tcp 1040 ------- 0 4.3 9.0 115 224
r 0.480285 1 0 tcp 1040 ------- 0 4.3 9.0 113 220
r 0.4803 0 9 tcp 1040 ------- 0 4.3 9.0 109 203
r 0.480509 3 2 tcp 1040 ------- 0 4.3 9.0 115 224
r 0.480917 2 1 tcp 1040 ------- 0 4.3 9.0 115 224
r 0.480958 4 3 tcp 1040 ------- 0 4.3 9.0 116 226
r 0.481117 1 0 tcp 1040 ------- 0 4.3 9.0 114 222
r 0.481132 0 9 tcp 1040 ------- 0 4.3 9.0 110 205
r 0.481341 3 2 tcp 1040 ------- 0 4.3 9.0 116 226
r 0.481749 2 1 tcp 1040 ------- 0 4.3 9.0 116 226
r 0.48179 4 3 tcp 1040 ------- 0 4.3 9.0 117 228
r 0.481949 1 0 tcp 1040 ------- 0 4.3 9.0 115 224
r 0.482173 3 2 tcp 1040 ------- 0 4.3 9.0 117 228
r 0.482581 2 1 tcp 1040 ------- 0 4.3 9.0 117 228
r 0.482622 4 3 tcp 1040 ------- 0 4.3 9.0 118 229
r 0.482781 1 0 tcp 1040 ------- 0 4.3 9.0 116 226
r 0.483005 3 2 tcp 1040 ------- 0 4.3 9.0 118 229
r 0.483413 2 1 tcp 1040 ------- 0 4.3 9.0 118 229
r 0.483454 4 3 tcp 1040 ------- 0 4.3 9.0 119 230
r 0.483613 1 0 tcp 1040 ------- 0 4.3 9.0 117 228
r 0.483837 3 2 tcp 1040 ------- 0 4.3 9.0 119 230
r 0.484245 2 1 tcp 1040 ------- 0 4.3 9.0 119 230
r 0.484286 4 3 tcp 1040 ------- 0 4.3 9.0 120 231
r 0.484445 1 0 tcp 1040 ------- 0 4.3 9.0 118 229
r 0.484669 3 2 tcp 1040 ------- 0 4.3 9.0 120 231
r 0.485077 2 1 tcp 1040 ------- 0 4.3 9.0 120 231
r 0.485118 4 3 tcp 1040 ------- 0 4.3 9.0 121 232
r 0.485277 1 0 tcp 1040 ------- 0 4.3 9.0 119 230
r 0.485501 3 2 tcp 1040 ------- 0 4.3 9.0 121 232
r 0.485909 2 1 tcp 1040 ------- 0 4.3 9.0 121 232
r 0.48595 4 3 tcp 1040 ------- 0 4.3 9.0 122 233
r 0.486109 1 0 tcp 1040 ------- 0 4.3 9.0 120 231
r 0.486333 3 2 tcp 1040 ------- 0 4.3 9.0 122 233
r 0.486741 2 1 tcp 1040 ------- 0 4.3 9.0 122 233
r 0.486782 4 3 tcp 1040 ------- 0 4.3 9.0 123 234
r 0.486941 1 0 tcp 1040 ------- 0 4.3 9.0 121 232
r 0.487165 3 2 tcp 1040 ------- 0 4.3 9.0 123 234
r 0.487573 2 1 tcp 1040 ------- 0 4.3 9.0 123 234
r 0.487614 4 3 tcp 1040 ------- 0 4.3 9.0 124 235
r 0.487773 1 0 tcp 1040 ------- 0 4.3 9.0 122 233
r 0.487997 3 2 tcp 1040 ------- 0 4.3 9.0 124 235
r 0.488405 2 1 tcp 1040 ------- 0 4.3 9.0 124 235
r 0.488446 4 3 tcp 1040 ------- 0 4.3 9.0 125 236
r 0.488605 1 0 tcp 1040 ------- 0 4.3 9.0 123 234
r 0.488829 3 2 tcp 1040 ------- 0 4.3 9.0 125 236
r 0.489237 2 1 tcp 1040 ------- 0 4.3 9.0 125 236
r 0.489278 4 3 tcp 1040 ------- 0 4.3 9.0 126 237
r 0.489437 1 0 tcp 1040 ------- 0 4.3 9.0 124 235
r 0.489453 0 9 tcp 1040 ------- 0 4.3 9.0 111 216
r 0.489661 3 2 tcp 1040 ------- 0 4.3 9.0 126 237
r 0.490069 2 1 tcp 1040 ------- 0 4.3 9.0 126 237