r 0.111238 0 11 tcp 40 ------- 0 4.5 11.0 0 5
r 0.143527 0 11 tcp 1040 ------- 0 4.5 11.0 1 30
r 0.144359 0 11 tcp 1040 ------- 0 4.5 11.0 2 31
r 0.175976 0 11 tcp 1040 ------- 0 4.5 11.0 3 80
r 0.176808 0 11 tcp 1040 ------- 0 4.5 11.0 4 81
r 0.17764 0 11 tcp 1040 ------- 0 4.5 11.0 5 82
r 0.178472 0 11 tcp 1040 ------- 0 4.5 11.0 6 83
r 0.225896 0 11 tcp 1040 ------- 0 4.5 11.0 7 174
r 0.226728 0 11 tcp 1040 ------- 0 4.5 11.0 8 175
r 0.22756 0 11 tcp 1040 ------- 0 4.5 11.0 9 177
r 0.228392 0 11 tcp 1040 ------- 0 4.5 11.0 10 178
r 0.229224 0 11 tcp 1040 ------- 0 4.5 11.0 11 180
r 0.230056 0 11 tcp 1040 ------- 0 4.5 11.0 12 181
r 0.230888 0 11 tcp 1040 ------- 0 4.5 11.0 13 183
r 0.23172 0 11 tcp 1040 ------- 0 4.5 11.0 14 184
r 0.290792 0 11 tcp 1040 ------- 0 4.5 11.0 15 354
r 0.291624 0 11 tcp 1040 ------- 0 4.5 11.0 17 357
r 0.292456 0 11 tcp 1040 ------- 0 4.5 11.0 19 360
r 0.293288 0 11 tcp 1040 ------- 0 4.5 11.0 21 363
r 0.29412 0 11 tcp 1040 ------- 0 4.5 11.0 23 366
r 0.294952 0 11 tcp 1040 ------- 0 4.5 11.0 25 369
r 0.295784 0 11 tcp 1040 ------- 0 4.5 11.0 27 372
r 0.296616 0 11 tcp 1040 ------- 0 4.5 11.0 29 375
r 0.342376 0 11 tcp 1040 ------- 0 4.5 11.0 31 532
r 0.343208 0 11 tcp 1040 ------- 0 4.5 11.0 32 533
r 0.34404 0 11 tcp 1040 ------- 0 4.5 11.0 33 535
r 0.344872 0 11 tcp 1040 ------- 0 4.5 11.0 34 537
r 0.345704 0 11 tcp 1040 ---A--- 0 4.5 11.0 16 539
r 0.369833 0 11 tcp 1040 ------- 0 4.5 11.0 18 630
r 0.370665 0 11 tcp 1040 ------- 0 4.5 11.0 19 631
r 0.402281 0 11 tcp 1040 ------- 0 4.5 11.0 20 680
r 0.403113 0 11 tcp 1040 ------- 0 4.5 11.0 21 681
r 0.403945 0 11 tcp 1040 ------- 0 4.5 11.0 22 682
r 0.404777 0 11 tcp 1040 ------- 0 4.5 11.0 23 683
r 0.443881 0 11 tcp 1040 ------- 0 4.5 11.0 24 768
r 0.444713 0 11 tcp 1040 ------- 0 4.5 11.0 25 769
r 0.445545 0 11 tcp 1040 ------- 0 4.5 11.0 26 771
r 0.446377 0 11 tcp 1040 ------- 0 4.5 11.0 27 773
r 0.447209 0 11 tcp 1040 ------- 0 4.5 11.0 28 774
r 0.448041 0 11 tcp 1040 ------- 0 4.5 11.0 29 776
r 0.506281 0 11 tcp 1040 ------- 0 4.5 11.0 30 893
r 0.507113 0 11 tcp 1040 ------- 0 4.5 11.0 31 894
r 0.507945 0 11 tcp 1040 ------- 0 4.5 11.0 32 896
r 0.508777 0 11 tcp 1040 ------- 0 4.5 11.0 33 898
r 0.509609 0 11 tcp 1040 ------- 0 4.5 11.0 34 899
r 0.510441 0 11 tcp 1040 ------- 0 4.5 11.0 35 901
r 0.511273 0 11 tcp 1040 ------- 0 4.5 11.0 36 903
r 0.512105 0 11 tcp 1040 ------- 0 4.5 11.0 37 904
r 0.512937 0 11 tcp 1040 ------- 0 4.5 11.0 38 906
r 0.565353 0 11 tcp 1040 ------- 0 4.5 11.0 39 1052
r 0.566185 0 11 tcp 1040 ------- 0 4.5 11.0 40 1053
r 0.567017 0 11 tcp 1040 ------- 0 4.5 11.0 41 1054
r 0.567849 0 11 tcp 1040 ------- 0 4.5 11.0 42 1055
r 0.568681 0 11 tcp 1040 ------- 0 4.5 11.0 43 1057
r 0.569513 0 11 tcp 1040 ------- 0 4.5 11.0 44 1059
r 0.570345 0 11 tcp 1040 ------- 0 4.5 11.0 45 1065
r 0.571177 0 11 tcp 1040 ------- 0 4.5 11.0 46 1067
r 0.623593 0 11 tcp 1040 ------- 0 4.5 11.0 47 1193
r 0.624425 0 11 tcp 1040 ------- 0 4.5 11.0 48 1195
r 0.625257 0 11 tcp 1040 ------- 0 4.5 11.0 49 1197
r 0.626089 0 11 tcp 1040 ------- 0 4.5 11.0 50 1199
r 0.626921 0 11 tcp 1040 ------- 0 4.5 11.0 51 1200
r 0.627753 0 11 tcp 1040 ------- 0 4.5 11.0 52 1202
r 0.628585 0 11 tcp 1040 ------- 0 4.5 11.0 53 1204
r 0.629417 0 11 tcp 1040 ------- 0 4.5 11.0 54 1206
r 0.630249 0 11 tcp 1040 ------- 0 4.5 11.0 55 1208
r 0.664361 0 11 tcp 1040 ------- 0 4.5 11.0 56 1312
r 0.665193 0 11 tcp 1040 ------- 0 4.5 11.0 57 1314
r 0.666025 0 11 tcp 1040 ------- 0 4.5 11.0 58 1316
r 0.666857 0 11 tcp 1040 ------- 0 4.5 11.0 59 1318
r 0.667689 0 11 tcp 1040 ------- 0 4.5 11.0 60 1320
r 0.668521 0 11 tcp 1040 ------- 0 4.5 11.0 61 1321
r 0.669353 0 11 tcp 1040 ------- 0 4.5 11.0 62 1323
r 0.670185 0 11 tcp 1040 ------- 0 4.5 11.0 63 1325
r 0.671017 0 11 tcp 1040 ------- 0 4.5 11.0 64 1327
r 0.671849 0 11 tcp 1040 ------- 0 4.5 11.0 65 1329
r 0.711785 0 11 tcp 1040 ------- 0 4.5 11.0 66 1418
r 0.712617 0 11 tcp 1040 ------- 0 4.5 11.0 67 1420
r 0.713449 0 11 tcp 1040 ------- 0 4.5 11.0 68 1422
r 0.714281 0 11 tcp 1040 ------- 0 4.5 11.0 69 1424
r 0.715945 0 11 tcp 1040 ------- 0 4.5 11.0 70 1427
r 0.716777 0 11 tcp 1040 ------- 0 4.5 11.0 71 1429
r 0.717609 0 11 tcp 1040 ------- 0 4.5 11.0 72 1431
r 0.718441 0 11 tcp 1040 ------- 0 4.5 11.0 73 1432
r 0.719273 0 11 tcp 1040 ------- 0 4.5 11.0 74 1434
r 0.720105 0 11 tcp 1040 ------- 0 4.5 11.0 75 1436
r 0.720937 0 11 tcp 1040 ------- 0 4.5 11.0 76 1438
r 0.768361 0 11 tcp 1040 ------- 0 4.5 11.0 77 1543
r 0.769193 0 11 tcp 1040 ------- 0 4.5 11.0 78 1545
r 0.770025 0 11 tcp 1040 ------- 0 4.5 11.0 79 1547
r 0.770857 0 11 tcp 1040 ------- 0 4.5 11.0 80 1549
r 0.773353 0 11 tcp 1040 ------- 0 4.5 11.0 81 1554
r 0.774185 0 11 tcp 1040 ------- 0 4.5 11.0 82 1556
r 0.775017 0 11 tcp 1040 ------- 0 4.5 11.0 83 1558
r 0.775849 0 11 tcp 1040 ------- 0 4.5 11.0 84 1560
r 0.776681 0 11 tcp 1040 ------- 0 4.5 11.0 85 1561
r 0.777513 0 11 tcp 1040 ------- 0 4.5 11.0 86 1563
r 0.778345 0 11 tcp 1040 ------- 0 4.5 11.0 87 1565
r 0.779177 0 11 tcp 1040 ------- 0 4.5 11.0 88 1567
r 0.830761 0 11 tcp 1040 ------- 0 4.5 11.0 89 1686
r 0.831593 0 11 tcp 1040 ------- 0 4.5 11.0 90 1688
r 0.832425 0 11 tcp 1040 ------- 0 4.5 11.0 91 1690
r 0.833257 0 11 tcp 1040 ------- 0 4.5 11.0 92 1692
r 0.837417 0 11 tcp 1040 ------- 0 4.5 11.0 93 1700
r 0.838249 0 11 tcp 1040 ------- 0 4.5 11.0 94 1702
r 0.839081 0 11 tcp 1040 ------- 0 4.5 11.0 95 1704
r 0.839913 0 11 tcp 1040 ------- 0 4.5 11.0 96 1706
r 0.840745 0 11 tcp 1040 ------- 0 4.5 11.0 97 1708
r 0.841577 0 11 tcp 1040 ------- 0 4.5 11.0 98 1710
r 0.842409 0 11 tcp 1040 ------- 0 4.5 11.0 99 1711
r 0.843241 0 11 tcp 1040 ------- 0 4.5 11.0 100 1713
r 0.844073 0 11 tcp 1040 ------- 0 4.5 11.0 101 1715
r 0.895657 0 11 tcp 1040 ------- 0 4.5 11.0 102 1847
r 0.896489 0 11 tcp 1040 ------- 0 4.5 11.0 103 1849
r 0.897321 0 11 tcp 1040 ------- 0 4.5 11.0 104 1851
r 0.898153 0 11 tcp 1040 ------- 0 4.5 11.0 105 1853
r 0.902313 0 11 tcp 1040 ------- 0 4.5 11.0 106 1863
r 0.903145 0 11 tcp 1040 ------- 0 4.5 11.0 107 1865
r 0.903977 0 11 tcp 1040 ------- 0 4.5 11.0 108 1867
r 0.904809 0 11 tcp 1040 ------- 0 4.5 11.0 109 1869
r 0.905641 0 11 tcp 1040 ------- 0 4.5 11.0 110 1871
r 0.906473 0 11 tcp 1040 ------- 0 4.5 11.0 111 1873
r 0.907305 0 11 tcp 1040 ------- 0 4.5 11.0 112 1875
r 0.908137 0 11 tcp 1040 ------- 0 4.5 11.0 114 1878
r 0.908969 0 11 tcp 1040 ------- 0 4.5 11.0 115 1880
r 0.960553 0 11 tcp 1040 ------- 0 4.5 11.0 116 2004
r 0.961385 0 11 tcp 1040 ------- 0 4.5 11.0 117 2006
r 0.962217 0 11 tcp 1040 ------- 0 4.5 11.0 118 2008
r 0.963049 0 11 tcp 1040 ------- 0 4.5 11.0 119 2010
r 0.967209 0 11 tcp 1040 ------- 0 4.5 11.0 120 2021
r 0.968041 0 11 tcp 1040 ------- 0 4.5 11.0 121 2023
r 0.968873 0 11 tcp 1040 ------- 0 4.5 11.0 122 2025
r 0.969705 0 11 tcp 1040 ------- 0 4.5 11.0 123 2027
r 0.970537 0 11 tcp 1040 ------- 0 4.5 11.0 124 2029
r 0.971369 0 11 tcp 1040 ------- 0 4.5 11.0 125 2031
r 0.972201 0 11 tcp 1040 ------- 0 4.5 11.0 126 2033
r 0.973033 0 11 tcp 1040 ------- 0 4.5 11.0 127 2035
r 0.973865 0 11 tcp 1040 ------- 0 4.5 11.0 128 2037
r 0.985513 0 11 tcp 1040 ---A--- 0 4.5 11.0 113 2113
r 1.013802 0 11 tcp 1040 ------- 0 4.5 11.0 129 2157
r 1.014634 0 11 tcp 1040 ------- 0 4.5 11.0 130 2158
r 1.047082 0 11 tcp 1040 ------- 0 4.5 11.0 131 2217
r 1.047914 0 11 tcp 1040 ------- 0 4.5 11.0 132 2218
r 1.048746 0 11 tcp 1040 ------- 0 4.5 11.0 133 2220
r 1.049578 0 11 tcp 1040 ------- 0 4.5 11.0 134 2221
r 1.08785 0 11 tcp 1040 ------- 0 4.5 11.0 135 2306
r 1.088682 0 11 tcp 1040 ------- 0 4.5 11.0 136 2307
r 1.089514 0 11 tcp 1040 ------- 0 4.5 11.0 137 2309
r 1.090346 0 11 tcp 1040 ------- 0 4.5 11.0 138 2310
r 1.091178 0 11 tcp 1040 ------- 0 4.5 11.0 139 2312
r 1.09201 0 11 tcp 1040 ------- 0 4.5 11.0 140 2313
r 1.092842 0 11 tcp 1040 ------- 0 4.5 11.0 141 2315
r 1.136106 0 11 tcp 1040 ------- 0 4.5 11.0 142 2413
r 1.136938 0 11 tcp 1040 ------- 0 4.5 11.0 143 2415
r 1.13777 0 11 tcp 1040 ------- 0 4.5 11.0 144 2417
r 1.138602 0 11 tcp 1040 ------- 0 4.5 11.0 145 2419
r 1.139434 0 11 tcp 1040 ------- 0 4.5 11.0 146 2421
r 1.140266 0 11 tcp 1040 ------- 0 4.5 11.0 147 2423
r 1.141098 0 11 tcp 1040 ------- 0 4.5 11.0 148 2425
r 1.14193 0 11 tcp 1040 ------- 0 4.5 11.0 149 2426
r 1.192682 0 11 tcp 1040 ------- 0 4.5 11.0 150 2539
r 1.193514 0 11 tcp 1040 ------- 0 4.5 11.0 151 2541
r 1.194346 0 11 tcp 1040 ------- 0 4.5 11.0 152 2543
r 1.195178 0 11 tcp 1040 ------- 0 4.5 11.0 153 2545
r 1.19601 0 11 tcp 1040 ------- 0 4.5 11.0 154 2547
r 1.196842 0 11 tcp 1040 ------- 0 4.5 11.0 155 2549
r 1.197674 0 11 tcp 1040 ------- 0 4.5 11.0 156 2551
r 1.198506 0 11 tcp 1040 ------- 0 4.5 11.0 157 2553
r 1.199338 0 11 tcp 1040 ------- 0 4.5 11.0 158 2554
r 1.255082 0 11 tcp 1040 ------- 0 4.5 11.0 159 2682
r 1.255914 0 11 tcp 1040 ------- 0 4.5 11.0 160 2684
r 1.256746 0 11 tcp 1040 ------- 0 4.5 11.0 161 2686
r 1.257578 0 11 tcp 1040 ------- 0 4.5 11.0 162 2688
r 1.25841 0 11 tcp 1040 ------- 0 4.5 11.0 163 2690
r 1.259242 0 11 tcp 1040 ------- 0 4.5 11.0 164 2692
r 1.260074 0 11 tcp 1040 ------- 0 4.5 11.0 165 2694
r 1.260906 0 11 tcp 1040 ------- 0 4.5 11.0 166 2696
r 1.261738 0 11 tcp 1040 ------- 0 4.5 11.0 167 2698
r 1.319978 0 11 tcp 1040 ------- 0 4.5 11.0 168 2838
r 1.32081 0 11 tcp 1040 ------- 0 4.5 11.0 170 2841
r 1.321642 0 11 tcp 1040 ------- 0 4.5 11.0 171 2843
r 1.322474 0 11 tcp 1040 ------- 0 4.5 11.0 172 2845
r 1.323306 0 11 tcp 1040 ------- 0 4.5 11.0 173 2847
r 1.324138 0 11 tcp 1040 ------- 0 4.5 11.0 174 2849
r 1.32497 0 11 tcp 1040 ------- 0 4.5 11.0 175 2851
r 1.325802 0 11 tcp 1040 ------- 0 4.5 11.0 176 2853
r 1.326634 0 11 tcp 1040 ------- 0 4.5 11.0 177 2855
r 1.372394 0 11 tcp 1040 ------- 0 4.5 11.0 178 2986
r 1.373226 0 11 tcp 1040 ------- 0 4.5 11.0 179 2988
r 1.374058 0 11 tcp 1040 ------- 0 4.5 11.0 180 2990
r 1.37489 0 11 tcp 1040 ---A--- 0 4.5 11.0 169 2992
r 1.40817 0 11 tcp 1040 ------- 0 4.5 11.0 181 3095
r 1.409002 0 11 tcp 1040 ------- 0 4.5 11.0 182 3096
r 1.438123 0 11 tcp 1040 ------- 0 4.5 11.0 183 3159
r 1.438955 0 11 tcp 1040 ------- 0 4.5 11.0 184 3160
r 1.439787 0 11 tcp 1040 ------- 0 4.5 11.0 185 3162
r 1.440619 0 11 tcp 1040 ------- 0 4.5 11.0 186 3163
r 1.472235 0 11 tcp 1040 ------- 0 4.5 11.0 187 3230
r 1.473067 0 11 tcp 1040 ------- 0 4.5 11.0 188 3231
r 1.473899 0 11 tcp 1040 ------- 0 4.5 11.0 189 3233
r 1.474731 0 11 tcp 1040 ------- 0 4.5 11.0 190 3235
r 1.475563 0 11 tcp 1040 ------- 0 4.5 11.0 191 3237
r 1.510507 0 11 tcp 1040 ------- 0 4.5 11.0 192 3317
r 1.511339 0 11 tcp 1040 ------- 0 4.5 11.0 193 3319
r 1.512171 0 11 tcp 1040 ------- 0 4.5 11.0 194 3321
r 1.513003 0 11 tcp 1040 ------- 0 4.5 11.0 195 3322
r 1.513835 0 11 tcp 1040 ------- 0 4.5 11.0 196 3324
r 1.514667 0 11 tcp 1040 ------- 0 4.5 11.0 197 3326
r 1.557099 0 11 tcp 1040 ------- 0 4.5 11.0 198 3419
r 1.557931 0 11 tcp 1040 ------- 0 4.5 11.0 199 3421
r 1.558763 0 11 tcp 1040 ------- 0 4.5 11.0 200 3423
r 1.559595 0 11 tcp 1040 ------- 0 4.5 11.0 201 3425
r 1.560427 0 11 tcp 1040 ------- 0 4.5 11.0 202 3426
r 1.561259 0 11 tcp 1040 ------- 0 4.5 11.0 203 3428
r 1.562091 0 11 tcp 1040 ------- 0 4.5 11.0 204 3430
r 1.612011 0 11 tcp 1040 ------- 0 4.5 11.0 205 3541
r 1.612843 0 11 tcp 1040 ------- 0 4.5 11.0 206 3543
r 1.613675 0 11 tcp 1040 ------- 0 4.5 11.0 207 3545
r 1.614507 0 11 tcp 1040 ------- 0 4.5 11.0 208 3547
r 1.615339 0 11 tcp 1040 ------- 0 4.5 11.0 209 3549
r 1.616171 0 11 tcp 1040 ------- 0 4.5 11.0 210 3551
r 1.617003 0 11 tcp 1040 ------- 0 4.5 11.0 211 3552
r 1.617835 0 11 tcp 1040 ------- 0 4.5 11.0 212 3554
r 1.674411 0 11 tcp 1040 ------- 0 4.5 11.0 213 3682
r 1.675243 0 11 tcp 1040 ------- 0 4.5 11.0 214 3684
r 1.676075 0 11 tcp 1040 ------- 0 4.5 11.0 215 3686
r 1.676907 0 11 tcp 1040 ------- 0 4.5 11.0 216 3688
r 1.677739 0 11 tcp 1040 ------- 0 4.5 11.0 217 3690
r 1.678571 0 11 tcp 1040 ------- 0 4.5 11.0 218 3692
r 1.679403 0 11 tcp 1040 ------- 0 4.5 11.0 219 3694
r 1.680235 0 11 tcp 1040 ------- 0 4.5 11.0 220 3695
r 1.681067 0 11 tcp 1040 ------- 0 4.5 11.0 221 3697
r 1.739307 0 11 tcp 1040 ------- 0 4.5 11.0 222 3842
r 1.740139 0 11 tcp 1040 ------- 0 4.5 11.0 223 3844
r 1.740971 0 11 tcp 1040 ------- 0 4.5 11.0 224 3846
r 1.741803 0 11 tcp 1040 ------- 0 4.5 11.0 225 3848
r 1.742635 0 11 tcp 1040 ------- 0 4.5 11.0 226 3850
r 1.743467 0 11 tcp 1040 ------- 0 4.5 11.0 227 3852
r 1.744299 0 11 tcp 1040 ------- 0 4.5 11.0 228 3854
r 1.745131 0 11 tcp 1040 ------- 0 4.5 11.0 229 3856
r 1.745963 0 11 tcp 1040 ------- 0 4.5 11.0 230 3858
r 1.804203 0 11 tcp 1040 ------- 0 4.5 11.0 232 4001
r 1.805035 0 11 tcp 1040 ------- 0 4.5 11.0 233 4003
r 1.805867 0 11 tcp 1040 ------- 0 4.5 11.0 234 4005
r 1.806699 0 11 tcp 1040 ------- 0 4.5 11.0 235 4007
r 1.807531 0 11 tcp 1040 ------- 0 4.5 11.0 236 4009
r 1.808363 0 11 tcp 1040 ------- 0 4.5 11.0 237 4011
r 1.809195 0 11 tcp 1040 ------- 0 4.5 11.0 238 4013
r 1.810027 0 11 tcp 1040 ------- 0 4.5 11.0 239 4015
r 1.810859 0 11 tcp 1040 ------- 0 4.5 11.0 240 4017
r 1.833323 0 11 tcp 1040 ------- 0 4.5 11.0 241 4114
r 1.834155 0 11 tcp 1040 ------- 0 4.5 11.0 242 4116
r 1.834987 0 11 tcp 1040 ---A--- 0 4.5 11.0 231 4118
r 1.859116 0 11 tcp 1040 ------- 0 4.5 11.0 243 4163
r 1.859948 0 11 tcp 1040 ------- 0 4.5 11.0 244 4164
r 1.894061 0 11 tcp 1040 ------- 0 4.5 11.0 245 4219
r 1.894893 0 11 tcp 1040 ------- 0 4.5 11.0 246 4220
r 1.895725 0 11 tcp 1040 ------- 0 4.5 11.0 247 4222
r 1.896557 0 11 tcp 1040 ------- 0 4.5 11.0 248 4223
r 1.929837 0 11 tcp 1040 ------- 0 4.5 11.0 249 4304
r 1.930669 0 11 tcp 1040 ------- 0 4.5 11.0 250 4305
r 1.931501 0 11 tcp 1040 ------- 0 4.5 11.0 251 4307
r 1.932333 0 11 tcp 1040 ------- 0 4.5 11.0 252 4309
r 1.933165 0 11 tcp 1040 ------- 0 4.5 11.0 253 4311
r 1.973101 0 11 tcp 1040 ------- 0 4.5 11.0 254 4399
r 1.973933 0 11 tcp 1040 ------- 0 4.5 11.0 255 4401
r 1.974765 0 11 tcp 1040 ------- 0 4.5 11.0 256 4403
r 1.975597 0 11 tcp 1040 ------- 0 4.5 11.0 257 4404
r 1.976429 0 11 tcp 1040 ------- 0 4.5 11.0 258 4406
r 1.977261 0 11 tcp 1040 ------- 0 4.5 11.0 259 4408
r 2.023853 0 11 tcp 1040 ------- 0 4.5 11.0 260 4512
r 2.024685 0 11 tcp 1040 ------- 0 4.5 11.0 261 4514
r 2.025517 0 11 tcp 1040 ------- 0 4.5 11.0 262 4516
r 2.026349 0 11 tcp 1040 ------- 0 4.5 11.0 263 4518
r 2.027181 0 11 tcp 1040 ------- 0 4.5 11.0 264 4519
r 2.028013 0 11 tcp 1040 ------- 0 4.5 11.0 265 4521
r 2.028845 0 11 tcp 1040 ------- 0 4.5 11.0 266 4523
r 2.082925 0 11 tcp 1040 ------- 0 4.5 11.0 267 4644
r 2.083757 0 11 tcp 1040 ------- 0 4.5 11.0 268 4646
r 2.084589 0 11 tcp 1040 ------- 0 4.5 11.0 269 4648
r 2.085421 0 11 tcp 1040 ------- 0 4.5 11.0 270 4650
r 2.086253 0 11 tcp 1040 ------- 0 4.5 11.0 271 4652
r 2.087085 0 11 tcp 1040 ------- 0 4.5 11.0 272 4654
r 2.087917 0 11 tcp 1040 ------- 0 4.5 11.0 273 4655
r 2.088749 0 11 tcp 1040 ------- 0 4.5 11.0 274 4657
r 2.147821 0 11 tcp 1040 ------- 0 4.5 11.0 275 4796
r 2.148653 0 11 tcp 1040 ------- 0 4.5 11.0 276 4798
r 2.149485 0 11 tcp 1040 ------- 0 4.5 11.0 277 4800
r 2.150317 0 11 tcp 1040 ------- 0 4.5 11.0 278 4802
r 2.151149 0 11 tcp 1040 ------- 0 4.5 11.0 279 4804
r 2.151981 0 11 tcp 1040 ------- 0 4.5 11.0 280 4806
r 2.152813 0 11 tcp 1040 ------- 0 4.5 11.0 281 4808
r 2.153645 0 11 tcp 1040 ------- 0 4.5 11.0 283 4811
r 2.212717 0 11 tcp 1040 ------- 0 4.5 11.0 284 4959
r 2.213549 0 11 tcp 1040 ------- 0 4.5 11.0 285 4961
r 2.214381 0 11 tcp 1040 ------- 0 4.5 11.0 286 4963
r 2.215213 0 11 tcp 1040 ------- 0 4.5 11.0 287 4965
r 2.216045 0 11 tcp 1040 ------- 0 4.5 11.0 288 4967
r 2.216877 0 11 tcp 1040 ------- 0 4.5 11.0 289 4969
r 2.217709 0 11 tcp 1040 ------- 0 4.5 11.0 290 4971
r 2.218541 0 11 tcp 1040 ------- 0 4.5 11.0 291 4973
r 2.261805 0 11 tcp 1040 ------- 0 4.5 11.0 292 5096
r 2.262637 0 11 tcp 1040 ---A--- 0 4.5 11.0 282 5098
r 2.286766 0 11 tcp 1040 ------- 0 4.5 11.0 293 5171
r 2.287598 0 11 tcp 1040 ------- 0 4.5 11.0 294 5172
r 2.315886 0 11 tcp 1040 ------- 0 4.5 11.0 295 5221
r 2.316718 0 11 tcp 1040 ------- 0 4.5 11.0 296 5222
r 2.31755 0 11 tcp 1040 ------- 0 4.5 11.0 297 5223
r 2.318382 0 11 tcp 1040 ------- 0 4.5 11.0 298 5224
r 2.349166 0 11 tcp 1040 ------- 0 4.5 11.0 299 5289
r 2.349998 0 11 tcp 1040 ------- 0 4.5 11.0 300 5291
r 2.35083 0 11 tcp 1040 ------- 0 4.5 11.0 301 5293
r 2.351662 0 11 tcp 1040 ------- 0 4.5 11.0 302 5295
r 2.385774 0 11 tcp 1040 ------- 0 4.5 11.0 303 5373
r 2.386606 0 11 tcp 1040 ------- 0 4.5 11.0 304 5374
r 2.387438 0 11 tcp 1040 ------- 0 4.5 11.0 305 5376
r 2.38827 0 11 tcp 1040 ------- 0 4.5 11.0 306 5378
r 2.389102 0 11 tcp 1040 ------- 0 4.5 11.0 307 5380
r 2.430702 0 11 tcp 1040 ------- 0 4.5 11.0 308 5471
r 2.431534 0 11 tcp 1040 ------- 0 4.5 11.0 309 5473
r 2.432366 0 11 tcp 1040 ------- 0 4.5 11.0 310 5474
r 2.433198 0 11 tcp 1040 ------- 0 4.5 11.0 311 5476
r 2.43403 0 11 tcp 1040 ------- 0 4.5 11.0 312 5478
r 2.434862 0 11 tcp 1040 ------- 0 4.5 11.0 313 5480
r 2.48395 0 11 tcp 1040 ------- 0 4.5 11.0 314 5589
r 2.484782 0 11 tcp 1040 ------- 0 4.5 11.0 315 5591
r 2.485614 0 11 tcp 1040 ------- 0 4.5 11.0 316 5593
r 2.486446 0 11 tcp 1040 ------- 0 4.5 11.0 317 5595
r 2.487278 0 11 tcp 1040 ------- 0 4.5 11.0 318 5596
r 2.48811 0 11 tcp 1040 ------- 0 4.5 11.0 319 5598
r 2.488942 0 11 tcp 1040 ------- 0 4.5 11.0 320 5600
r 2.545518 0 11 tcp 1040 ------- 0 4.5 11.0 321 5727
r 2.54635 0 11 tcp 1040 ------- 0 4.5 11.0 322 5729
r 2.547182 0 11 tcp 1040 ------- 0 4.5 11.0 323 5731
r 2.548014 0 11 tcp 1040 ------- 0 4.5 11.0 324 5733
r 2.548846 0 11 tcp 1040 ------- 0 4.5 11.0 325 5735
r 2.549678 0 11 tcp 1040 ------- 0 4.5 11.0 326 5736
r 2.55051 0 11 tcp 1040 ------- 0 4.5 11.0 327 5738
r 2.551342 0 11 tcp 1040 ------- 0 4.5 11.0 328 5740
r 2.610414 0 11 tcp 1040 ------- 0 4.5 11.0 329 5885
r 2.611246 0 11 tcp 1040 ------- 0 4.5 11.0 330 5887
r 2.612078 0 11 tcp 1040 ------- 0 4.5 11.0 331 5889
r 2.61291 0 11 tcp 1040 ------- 0 4.5 11.0 332 5891
r 2.613742 0 11 tcp 1040 ------- 0 4.5 11.0 333 5893
r 2.614574 0 11 tcp 1040 ------- 0 4.5 11.0 334 5895
r 2.615406 0 11 tcp 1040 ------- 0 4.5 11.0 335 5897
r 2.616238 0 11 tcp 1040 ------- 0 4.5 11.0 337 5900
r 2.67531 0 11 tcp 1040 ------- 0 4.5 11.0 338 6045
r 2.676142 0 11 tcp 1040 ------- 0 4.5 11.0 339 6047
r 2.676974 0 11 tcp 1040 ------- 0 4.5 11.0 340 6049
r 2.677806 0 11 tcp 1040 ------- 0 4.5 11.0 341 6051
r 2.678638 0 11 tcp 1040 ------- 0 4.5 11.0 342 6053
r 2.67947 0 11 tcp 1040 ------- 0 4.5 11.0 343 6055
r 2.680302 0 11 tcp 1040 ------- 0 4.5 11.0 344 6057
r 2.681134 0 11 tcp 1040 ------- 0 4.5 11.0 345 6059
r 2.710254 0 11 tcp 1040 ------- 0 4.5 11.0 346 6165
r 2.711086 0 11 tcp 1040 ---A--- 0 4.5 11.0 336 6167
r 2.736879 0 11 tcp 1040 ------- 0 4.5 11.0 347 6221
r 2.737711 0 11 tcp 1040 ------- 0 4.5 11.0 348 6222
r 2.770992 0 11 tcp 1040 ------- 0 4.5 11.0 349 6273
r 2.771824 0 11 tcp 1040 ------- 0 4.5 11.0 350 6274
r 2.772656 0 11 tcp 1040 ------- 0 4.5 11.0 351 6275
r 2.773488 0 11 tcp 1040 ------- 0 4.5 11.0 352 6276
r 2.804272 0 11 tcp 1040 ------- 0 4.5 11.0 353 6351
r 2.805104 0 11 tcp 1040 ------- 0 4.5 11.0 354 6353
r 2.805936 0 11 tcp 1040 ------- 0 4.5 11.0 355 6355
r 2.806768 0 11 tcp 1040 ------- 0 4.5 11.0 356 6357
r 2.843376 0 11 tcp 1040 ------- 0 4.5 11.0 357 6438
r 2.844208 0 11 tcp 1040 ------- 0 4.5 11.0 358 6439
r 2.84504 0 11 tcp 1040 ------- 0 4.5 11.0 359 6441
r 2.845872 0 11 tcp 1040 ------- 0 4.5 11.0 360 6443
r 2.846704 0 11 tcp 1040 ------- 0 4.5 11.0 361 6445
r 2.8908 0 11 tcp 1040 ------- 0 4.5 11.0 362 6542
r 2.891632 0 11 tcp 1040 ------- 0 4.5 11.0 363 6544
r 2.892464 0 11 tcp 1040 ------- 0 4.5 11.0 364 6545
r 2.893296 0 11 tcp 1040 ------- 0 4.5 11.0 365 6547
r 2.894128 0 11 tcp 1040 ------- 0 4.5 11.0 366 6549
r 2.89496 0 11 tcp 1040 ------- 0 4.5 11.0 367 6551
r 2.946544 0 11 tcp 1040 ------- 0 4.5 11.0 368 6666
r 2.947376 0 11 tcp 1040 ------- 0 4.5 11.0 369 6668
r 2.948208 0 11 tcp 1040 ------- 0 4.5 11.0 370 6670
r 2.94904 0 11 tcp 1040 ------- 0 4.5 11.0 371 6672
r 2.949872 0 11 tcp 1040 ------- 0 4.5 11.0 372 6673
r 2.950704 0 11 tcp 1040 ------- 0 4.5 11.0 373 6675
r 2.951536 0 11 tcp 1040 ------- 0 4.5 11.0 374 6677
r 3.010608 0 11 tcp 1040 ------- 0 4.5 11.0 375 6810
r 3.01144 0 11 tcp 1040 ------- 0 4.5 11.0 376 6812
r 3.012272 0 11 tcp 1040 ------- 0 4.5 11.0 377 6814
r 3.013104 0 11 tcp 1040 ------- 0 4.5 11.0 378 6816
r 3.013936 0 11 tcp 1040 ------- 0 4.5 11.0 379 6818
r 3.014768 0 11 tcp 1040 ------- 0 4.5 11.0 380 6819
r 3.0156 0 11 tcp 1040 ------- 0 4.5 11.0 381 6821
r 3.016432 0 11 tcp 1040 ------- 0 4.5 11.0 382 6823
r 3.077168 0 11 tcp 1040 ------- 0 4.5 11.0 383 6997
r 3.078 0 11 tcp 1040 ------- 0 4.5 11.0 384 6998
r 3.078832 0 11 tcp 1040 ------- 0 4.5 11.0 385 6999
r 3.079664 0 11 tcp 1040 ------- 0 4.5 11.0 386 7000
r 3.080496 0 11 tcp 1040 ------- 0 4.5 11.0 387 7002
r 3.081328 0 11 tcp 1040 ------- 0 4.5 11.0 388 7004
r 3.08216 0 11 tcp 1040 ------- 0 4.5 11.0 390 7007
r 3.142064 0 11 tcp 1040 ------- 0 4.5 11.0 392 7217
r 3.142896 0 11 tcp 1040 ------- 0 4.5 11.0 393 7219
r 3.143728 0 11 tcp 1040 ------- 0 4.5 11.0 394 7221
r 3.14456 0 11 tcp 1040 ------- 0 4.5 11.0 395 7223
r 3.145392 0 11 tcp 1040 ------- 0 4.5 11.0 396 7240
r 3.146224 0 11 tcp 1040 ------- 0 4.5 11.0 397 7241
r 3.147056 0 11 tcp 1040 ------- 0 4.5 11.0 398 7242
r 3.175223 0 11 tcp 1040 ------- 0 4.5 11.0 399 7375
r 3.176055 0 11 tcp 1040 ---A--- 0 4.5 11.0 389 7376
r 3.206169 0 11 tcp 1040 ------- 0 4.5 11.0 391 7454
r 3.207001 0 11 tcp 1040 ------- 0 4.5 11.0 392 7455
r 3.245273 0 11 tcp 1040 ------- 0 4.5 11.0 400 7570
r 3.246105 0 11 tcp 1040 ------- 0 4.5 11.0 401 7571
r 3.246937 0 11 tcp 1040 ------- 0 4.5 11.0 402 7572
r 3.247769 0 11 tcp 1040 ------- 0 4.5 11.0 403 7574
r 3.286873 0 11 tcp 1040 ------- 0 4.5 11.0 404 7698
r 3.287705 0 11 tcp 1040 ------- 0 4.5 11.0 405 7699
r 3.288537 0 11 tcp 1040 ------- 0 4.5 11.0 406 7700
r 3.289369 0 11 tcp 1040 ------- 0 4.5 11.0 407 7701
r 3.335961 0 11 tcp 1040 ------- 0 4.5 11.0 408 7836
r 3.336793 0 11 tcp 1040 ------- 0 4.5 11.0 409 7838
r 3.337625 0 11 tcp 1040 ------- 0 4.5 11.0 410 7839
r 3.338457 0 11 tcp 1040 ------- 0 4.5 11.0 411 7841
r 3.339289 0 11 tcp 1040 ------- 0 4.5 11.0 412 7843
r 3.393369 0 11 tcp 1040 ------- 0 4.5 11.0 413 7984
r 3.394201 0 11 tcp 1040 ------- 0 4.5 11.0 414 7986
r 3.395033 0 11 tcp 1040 ------- 0 4.5 11.0 415 8008
r 3.395865 0 11 tcp 1040 ------- 0 4.5 11.0 416 8009
r 3.396697 0 11 tcp 1040 ------- 0 4.5 11.0 417 8011
r 3.397529 0 11 tcp 1040 ------- 0 4.5 11.0 418 8013
r 3.458265 0 11 tcp 1040 ------- 0 4.5 11.0 419 8192
r 3.459097 0 11 tcp 1040 ------- 0 4.5 11.0 420 8194
r 3.459929 0 11 tcp 1040 ------- 0 4.5 11.0 421 8196
r 3.460761 0 11 tcp 1040 ------- 0 4.5 11.0 422 8198
r 3.461593 0 11 tcp 1040 ------- 0 4.5 11.0 423 8200
r 3.462425 0 11 tcp 1040 ------- 0 4.5 11.0 425 8203
r 3.523161 0 11 tcp 1040 ------- 0 4.5 11.0 426 8409
r 3.523993 0 11 tcp 1040 ------- 0 4.5 11.0 427 8410
r 3.524825 0 11 tcp 1040 ------- 0 4.5 11.0 428 8411
r 3.525657 0 11 tcp 1040 ------- 0 4.5 11.0 429 8412
r 3.526489 0 11 tcp 1040 ------- 0 4.5 11.0 430 8413
r 3.527321 0 11 tcp 1040 ------- 0 4.5 11.0 431 8414
r 3.580569 0 11 tcp 1040 ------- 0 4.5 11.0 432 8589
r 3.581401 0 11 tcp 1040 ---A--- 0 4.5 11.0 424 8591
r 3.618841 0 11 tcp 1040 ------- 0 4.5 11.0 433 8765
r 3.619673 0 11 tcp 1040 ------- 0 4.5 11.0 434 8766
r 3.659862 0 11 tcp 1040 ------- 0 4.5 11.0 435 8888
r 3.660694 0 11 tcp 1040 ------- 0 4.5 11.0 436 8889
r 3.661526 0 11 tcp 1040 ------- 0 4.5 11.0 437 8890
r 3.70895 0 11 tcp 1040 ------- 0 4.5 11.0 438 9021
r 3.709782 0 11 tcp 1040 ------- 0 4.5 11.0 439 9023
r 3.710614 0 11 tcp 1040 ------- 0 4.5 11.0 440 9025
r 3.711446 0 11 tcp 1040 ------- 0 4.5 11.0 441 9026
r 3.761366 0 11 tcp 1040 ------- 0 4.5 11.0 442 9164
r 3.762198 0 11 tcp 1040 ------- 0 4.5 11.0 443 9165
r 3.76303 0 11 tcp 1040 ------- 0 4.5 11.0 444 9167
r 3.763862 0 11 tcp 1040 ------- 0 4.5 11.0 445 9169
r 3.764694 0 11 tcp 1040 ------- 0 4.5 11.0 446 9170
r 3.820438 0 11 tcp 1040 ------- 0 4.5 11.0 447 9339
r 3.82127 0 11 tcp 1040 ------- 0 4.5 11.0 448 9340
r 3.822102 0 11 tcp 1040 ------- 0 4.5 11.0 449 9341
r 3.822934 0 11 tcp 1040 ------- 0 4.5 11.0 450 9343
r 3.823766 0 11 tcp 1040 ------- 0 4.5 11.0 451 9345
r 3.886166 0 11 tcp 1040 ------- 0 4.5 11.0 452 9548
r 3.886998 0 11 tcp 1040 ------- 0 4.5 11.0 455 9553
r 3.88783 0 11 tcp 1040 ------- 0 4.5 11.0 456 9555
r 3.888662 0 11 tcp 1040 ------- 0 4.5 11.0 457 9557
r 3.951894 0 11 tcp 1040 ------- 0 4.5 11.0 458 9769
r 3.952726 0 11 tcp 1040 ------- 0 4.5 11.0 459 9770
r 3.953558 0 11 tcp 1040 ------- 0 4.5 11.0 460 9771
r 3.95439 0 11 tcp 1040 ---A--- 0 4.5 11.0 453 9772
r 3.999318 0 11 tcp 1040 ------- 0 4.5 11.0 454 9955
r 4.00015 0 11 tcp 1040 ------- 0 4.5 11.0 455 9956
r 4.03403 0 11 tcp 1040 ------- 0 4.5 11.0 461 10074
r 4.034862 0 11 tcp 1040 ------- 0 4.5 11.0 462 10075
r 4.035694 0 11 tcp 1040 ------- 0 4.5 11.0 463 10076
r 4.036526 0 11 tcp 1040 ------- 0 4.5 11.0 464 10077
r 4.07979 0 11 tcp 1040 ------- 0 4.5 11.0 465 10203
r 4.080622 0 11 tcp 1040 ------- 0 4.5 11.0 466 10205
r 4.081454 0 11 tcp 1040 ------- 0 4.5 11.0 467 10207
r 4.082286 0 11 tcp 1040 ------- 0 4.5 11.0 468 10208
r 4.136366 0 11 tcp 1040 ------- 0 4.5 11.0 469 10351
r 4.137198 0 11 tcp 1040 ------- 0 4.5 11.0 470 10352
r 4.13803 0 11 tcp 1040 ------- 0 4.5 11.0 471 10353
r 4.138862 0 11 tcp 1040 ------- 0 4.5 11.0 472 10354
r 4.139694 0 11 tcp 1040 ------- 0 4.5 11.0 473 10355
r 4.197934 0 11 tcp 1040 ------- 0 4.5 11.0 474 10529
r 4.198766 0 11 tcp 1040 ------- 0 4.5 11.0 475 10530
r 4.199598 0 11 tcp 1040 ------- 0 4.5 11.0 476 10531
r 4.20043 0 11 tcp 1040 ------- 0 4.5 11.0 477 10533
r 4.201262 0 11 tcp 1040 ------- 0 4.5 11.0 478 10535
r 4.26283 0 11 tcp 1040 ------- 0 4.5 11.0 479 10744
r 4.263662 0 11 tcp 1040 ------- 0 4.5 11.0 481 10747
r 4.264494 0 11 tcp 1040 ------- 0 4.5 11.0 482 10749
r 4.265326 0 11 tcp 1040 ------- 0 4.5 11.0 483 10751
r 4.266158 0 11 tcp 1040 ------- 0 4.5 11.0 484 10753
r 4.328558 0 11 tcp 1040 ------- 0 4.5 11.0 485 10957
r 4.32939 0 11 tcp 1040 ------- 0 4.5 11.0 486 10958
r 4.330222 0 11 tcp 1040 ------- 0 4.5 11.0 487 10959
r 4.331054 0 11 tcp 1040 ---A--- 0 4.5 11.0 480 10960
r 4.38763 0 11 tcp 1040 ------- 0 4.5 11.0 488 11161
r 4.388462 0 11 tcp 1040 ------- 0 4.5 11.0 489 11162
r 4.431726 0 11 tcp 1040 ------- 0 4.5 11.0 490 11322
r 4.432558 0 11 tcp 1040 ------- 0 4.5 11.0 491 11323
r 4.43339 0 11 tcp 1040 ------- 0 4.5 11.0 492 11325
r 4.48331 0 11 tcp 1040 ------- 0 4.5 11.0 493 11458
r 4.484142 0 11 tcp 1040 ------- 0 4.5 11.0 494 11459
r 4.484974 0 11 tcp 1040 ------- 0 4.5 11.0 495 11461
r 4.485806 0 11 tcp 1040 ------- 0 4.5 11.0 496 11462
r 4.546542 0 11 tcp 1040 ------- 0 4.5 11.0 497 11639
r 4.547374 0 11 tcp 1040 ------- 0 4.5 11.0 498 11640
r 4.548206 0 11 tcp 1040 ------- 0 4.5 11.0 499 11641
r 4.549038 0 11 tcp 1040 ------- 0 4.5 11.0 500 11642
r 4.54987 0 11 tcp 1040 ------- 0 4.5 11.0 501 11643
r 4.611438 0 11 tcp 1040 ------- 0 4.5 11.0 502 11856
r 4.61227 0 11 tcp 1040 ------- 0 4.5 11.0 503 11858
r 4.613102 0 11 tcp 1040 ------- 0 4.5 11.0 504 11860
r 4.613934 0 11 tcp 1040 ------- 0 4.5 11.0 505 11862
r 4.614766 0 11 tcp 1040 ------- 0 4.5 11.0 506 11864
r 4.672174 0 11 tcp 1040 ------- 0 4.5 11.0 507 12060
r 4.673006 0 11 tcp 1040 ------- 0 4.5 11.0 508 12061
r 4.673838 0 11 tcp 1040 ------- 0 4.5 11.0 509 12062
r 4.67467 0 11 tcp 1040 ------- 0 4.5 11.0 510 12063
r 4.675502 0 11 tcp 1040 ------- 0 4.5 11.0 511 12064
r 4.676334 0 11 tcp 1040 ------- 0 4.5 11.0 512 12065
r 4.730414 0 11 tcp 1040 ------- 0 4.5 11.0 513 12235
r 4.731246 0 11 tcp 1040 ------- 0 4.5 11.0 514 12236
r 4.732078 0 11 tcp 1040 ------- 0 4.5 11.0 515 12237
r 4.73291 0 11 tcp 1040 ------- 0 4.5 11.0 516 12238
r 4.733742 0 11 tcp 1040 ------- 0 4.5 11.0 517 12240
r 4.734574 0 11 tcp 1040 ------- 0 4.5 11.0 518 12242
r 4.735406 0 11 tcp 1040 ------- 0 4.5 11.0 519 12244
r 4.78699 0 11 tcp 1040 ------- 0 4.5 11.0 520 12431
r 4.787822 0 11 tcp 1040 ------- 0 4.5 11.0 521 12433
r 4.788654 0 11 tcp 1040 ------- 0 4.5 11.0 522 12435
r 4.789486 0 11 tcp 1040 ------- 0 4.5 11.0 523 12436
r 4.790318 0 11 tcp 1040 ------- 0 4.5 11.0 524 12438
r 4.79115 0 11 tcp 1040 ------- 0 4.5 11.0 525 12440
r 4.791982 0 11 tcp 1040 ------- 0 4.5 11.0 526 12442
r 4.792814 0 11 tcp 1040 ------- 0 4.5 11.0 527 12444
r 4.851886 0 11 tcp 1040 ------- 0 4.5 11.0 528 12619
r 4.852718 0 11 tcp 1040 ------- 0 4.5 11.0 529 12621
r 4.85355 0 11 tcp 1040 ------- 0 4.5 11.0 530 12623
r 4.854382 0 11 tcp 1040 ------- 0 4.5 11.0 531 12625
r 4.855214 0 11 tcp 1040 ------- 0 4.5 11.0 532 12627
r 4.856046 0 11 tcp 1040 ------- 0 4.5 11.0 534 12630
r 4.856878 0 11 tcp 1040 ------- 0 4.5 11.0 535 12632
r 4.85771 0 11 tcp 1040 ------- 0 4.5 11.0 536 12634
r 4.916782 0 11 tcp 1040 ------- 0 4.5 11.0 537 12836
r 4.917614 0 11 tcp 1040 ------- 0 4.5 11.0 538 12837
r 4.918446 0 11 tcp 1040 ------- 0 4.5 11.0 539 12838
r 4.919278 0 11 tcp 1040 ------- 0 4.5 11.0 540 12839
r 4.92011 0 11 tcp 1040 ------- 0 4.5 11.0 541 12840
r 4.920942 0 11 tcp 1040 ------- 0 4.5 11.0 542 12841
r 4.921774 0 11 tcp 1040 ------- 0 4.5 11.0 543 12842
r 4.922606 0 11 tcp 1040 ---A--- 0 4.5 11.0 533 12843
r 4.972526 0 11 tcp 1040 ------- 0 4.5 11.0 544 13038
r 4.973358 0 11 tcp 1040 ------- 0 4.5 11.0 545 13039
r 5.014126 0 11 tcp 1040 ------- 0 4.5 11.0 546 13188
r 5.014958 0 11 tcp 1040 ------- 0 4.5 11.0 547 13189
r 5.01579 0 11 tcp 1040 ------- 0 4.5 11.0 548 13191
r 5.016622 0 11 tcp 1040 ------- 0 4.5 11.0 549 13192
r 5.055134 0 11 tcp 1040 ------- 0 4.5 11.0 550 13312
r 5.055966 0 11 tcp 1040 ------- 0 4.5 11.0 551 13313
r 5.056798 0 11 tcp 1040 ------- 0 4.5 11.0 552 13314
r 5.05763 0 11 tcp 1040 ------- 0 4.5 11.0 553 13315
r 5.101726 0 11 tcp 1040 ------- 0 4.5 11.0 554 13448
r 5.102558 0 11 tcp 1040 ------- 0 4.5 11.0 555 13449