r 0.111206 0 10 tcp 40 ------- 0 4.4 10.0 0 4
r 0.141863 0 10 tcp 1040 ------- 0 4.4 10.0 1 28
r 0.142695 0 10 tcp 1040 ------- 0 4.4 10.0 2 29
r 0.172648 0 10 tcp 1040 ------- 0 4.4 10.0 3 76
r 0.17348 0 10 tcp 1040 ------- 0 4.4 10.0 4 77
r 0.174312 0 10 tcp 1040 ------- 0 4.4 10.0 5 78
r 0.175144 0 10 tcp 1040 ------- 0 4.4 10.0 6 79
r 0.21924 0 10 tcp 1040 ------- 0 4.4 10.0 7 162
r 0.220072 0 10 tcp 1040 ------- 0 4.4 10.0 8 163
r 0.220904 0 10 tcp 1040 ------- 0 4.4 10.0 9 165
r 0.221736 0 10 tcp 1040 ------- 0 4.4 10.0 10 166
r 0.222568 0 10 tcp 1040 ------- 0 4.4 10.0 11 168
r 0.2234 0 10 tcp 1040 ------- 0 4.4 10.0 12 169
r 0.224232 0 10 tcp 1040 ------- 0 4.4 10.0 13 171
r 0.225064 0 10 tcp 1040 ------- 0 4.4 10.0 14 172
r 0.284136 0 10 tcp 1040 ------- 0 4.4 10.0 15 330
r 0.284968 0 10 tcp 1040 ------- 0 4.4 10.0 17 333
r 0.2858 0 10 tcp 1040 ------- 0 4.4 10.0 19 336
r 0.286632 0 10 tcp 1040 ------- 0 4.4 10.0 21 339
r 0.287464 0 10 tcp 1040 ------- 0 4.4 10.0 23 342
r 0.288296 0 10 tcp 1040 ------- 0 4.4 10.0 25 345
r 0.289128 0 10 tcp 1040 ------- 0 4.4 10.0 27 348
r 0.28996 0 10 tcp 1040 ------- 0 4.4 10.0 29 351
r 0.338216 0 10 tcp 1040 ------- 0 4.4 10.0 31 519
r 0.339048 0 10 tcp 1040 ------- 0 4.4 10.0 32 520
r 0.33988 0 10 tcp 1040 ------- 0 4.4 10.0 33 522
r 0.340712 0 10 tcp 1040 ------- 0 4.4 10.0 34 524
r 0.341544 0 10 tcp 1040 ---A--- 0 4.4 10.0 16 526
r 0.367336 0 10 tcp 1040 ------- 0 4.4 10.0 18 623
r 0.368168 0 10 tcp 1040 ------- 0 4.4 10.0 19 624
r 0.398953 0 10 tcp 1040 ------- 0 4.4 10.0 20 675
r 0.399785 0 10 tcp 1040 ------- 0 4.4 10.0 21 676
r 0.400617 0 10 tcp 1040 ------- 0 4.4 10.0 22 677
r 0.401449 0 10 tcp 1040 ------- 0 4.4 10.0 23 679
r 0.438889 0 10 tcp 1040 ------- 0 4.4 10.0 24 758
r 0.439721 0 10 tcp 1040 ------- 0 4.4 10.0 25 759
r 0.440553 0 10 tcp 1040 ------- 0 4.4 10.0 26 761
r 0.441385 0 10 tcp 1040 ------- 0 4.4 10.0 27 763
r 0.442217 0 10 tcp 1040 ------- 0 4.4 10.0 28 764
r 0.443049 0 10 tcp 1040 ------- 0 4.4 10.0 29 766
r 0.498793 0 10 tcp 1040 ------- 0 4.4 10.0 30 878
r 0.499625 0 10 tcp 1040 ------- 0 4.4 10.0 31 879
r 0.500457 0 10 tcp 1040 ------- 0 4.4 10.0 32 881
r 0.501289 0 10 tcp 1040 ------- 0 4.4 10.0 33 883
r 0.502121 0 10 tcp 1040 ------- 0 4.4 10.0 34 884
r 0.502953 0 10 tcp 1040 ------- 0 4.4 10.0 35 886
r 0.503785 0 10 tcp 1040 ------- 0 4.4 10.0 36 888
r 0.504617 0 10 tcp 1040 ------- 0 4.4 10.0 37 889
r 0.505449 0 10 tcp 1040 ------- 0 4.4 10.0 38 891
r 0.558697 0 10 tcp 1040 ------- 0 4.4 10.0 39 1035
r 0.559529 0 10 tcp 1040 ------- 0 4.4 10.0 40 1036
r 0.560361 0 10 tcp 1040 ------- 0 4.4 10.0 41 1037
r 0.561193 0 10 tcp 1040 ------- 0 4.4 10.0 42 1038
r 0.562025 0 10 tcp 1040 ------- 0 4.4 10.0 43 1040
r 0.562857 0 10 tcp 1040 ------- 0 4.4 10.0 44 1042
r 0.563689 0 10 tcp 1040 ------- 0 4.4 10.0 45 1048
r 0.564521 0 10 tcp 1040 ------- 0 4.4 10.0 46 1050
r 0.616105 0 10 tcp 1040 ------- 0 4.4 10.0 47 1176
r 0.616937 0 10 tcp 1040 ------- 0 4.4 10.0 48 1178
r 0.617769 0 10 tcp 1040 ------- 0 4.4 10.0 49 1180
r 0.618601 0 10 tcp 1040 ------- 0 4.4 10.0 50 1182
r 0.619433 0 10 tcp 1040 ------- 0 4.4 10.0 51 1183
r 0.620265 0 10 tcp 1040 ------- 0 4.4 10.0 52 1185
r 0.621097 0 10 tcp 1040 ------- 0 4.4 10.0 53 1187
r 0.621929 0 10 tcp 1040 ------- 0 4.4 10.0 54 1189
r 0.622761 0 10 tcp 1040 ------- 0 4.4 10.0 55 1191
r 0.656041 0 10 tcp 1040 ------- 0 4.4 10.0 56 1293
r 0.656873 0 10 tcp 1040 ------- 0 4.4 10.0 57 1295
r 0.657705 0 10 tcp 1040 ------- 0 4.4 10.0 58 1297
r 0.658537 0 10 tcp 1040 ------- 0 4.4 10.0 59 1299
r 0.659369 0 10 tcp 1040 ------- 0 4.4 10.0 60 1301
r 0.660201 0 10 tcp 1040 ------- 0 4.4 10.0 61 1302
r 0.661033 0 10 tcp 1040 ------- 0 4.4 10.0 62 1304
r 0.661865 0 10 tcp 1040 ------- 0 4.4 10.0 63 1306
r 0.662697 0 10 tcp 1040 ------- 0 4.4 10.0 64 1308
r 0.663529 0 10 tcp 1040 ------- 0 4.4 10.0 65 1310
r 0.702633 0 10 tcp 1040 ------- 0 4.4 10.0 66 1397
r 0.703465 0 10 tcp 1040 ------- 0 4.4 10.0 67 1399
r 0.704297 0 10 tcp 1040 ------- 0 4.4 10.0 68 1401
r 0.705129 0 10 tcp 1040 ------- 0 4.4 10.0 69 1403
r 0.705961 0 10 tcp 1040 ------- 0 4.4 10.0 70 1405
r 0.706793 0 10 tcp 1040 ------- 0 4.4 10.0 71 1407
r 0.707625 0 10 tcp 1040 ------- 0 4.4 10.0 72 1409
r 0.708457 0 10 tcp 1040 ------- 0 4.4 10.0 73 1410
r 0.709289 0 10 tcp 1040 ------- 0 4.4 10.0 74 1412
r 0.710121 0 10 tcp 1040 ------- 0 4.4 10.0 75 1414
r 0.710953 0 10 tcp 1040 ------- 0 4.4 10.0 76 1416
r 0.758377 0 10 tcp 1040 ------- 0 4.4 10.0 77 1520
r 0.759209 0 10 tcp 1040 ------- 0 4.4 10.0 78 1522
r 0.760041 0 10 tcp 1040 ------- 0 4.4 10.0 79 1524
r 0.760873 0 10 tcp 1040 ------- 0 4.4 10.0 80 1526
r 0.761705 0 10 tcp 1040 ------- 0 4.4 10.0 81 1528
r 0.762537 0 10 tcp 1040 ------- 0 4.4 10.0 82 1530
r 0.763369 0 10 tcp 1040 ------- 0 4.4 10.0 83 1532
r 0.764201 0 10 tcp 1040 ------- 0 4.4 10.0 84 1534
r 0.765033 0 10 tcp 1040 ------- 0 4.4 10.0 85 1535
r 0.765865 0 10 tcp 1040 ------- 0 4.4 10.0 86 1537
r 0.766697 0 10 tcp 1040 ------- 0 4.4 10.0 87 1539
r 0.767529 0 10 tcp 1040 ------- 0 4.4 10.0 88 1541
r 0.819945 0 10 tcp 1040 ------- 0 4.4 10.0 89 1661
r 0.820777 0 10 tcp 1040 ------- 0 4.4 10.0 90 1663
r 0.821609 0 10 tcp 1040 ------- 0 4.4 10.0 91 1665
r 0.822441 0 10 tcp 1040 ------- 0 4.4 10.0 92 1667
r 0.823273 0 10 tcp 1040 ------- 0 4.4 10.0 93 1669
r 0.824105 0 10 tcp 1040 ------- 0 4.4 10.0 94 1671
r 0.824937 0 10 tcp 1040 ------- 0 4.4 10.0 95 1673
r 0.825769 0 10 tcp 1040 ------- 0 4.4 10.0 96 1675
r 0.826601 0 10 tcp 1040 ------- 0 4.4 10.0 97 1677
r 0.827433 0 10 tcp 1040 ------- 0 4.4 10.0 98 1679
r 0.828265 0 10 tcp 1040 ------- 0 4.4 10.0 99 1680
r 0.829097 0 10 tcp 1040 ------- 0 4.4 10.0 100 1682
r 0.829929 0 10 tcp 1040 ------- 0 4.4 10.0 101 1684
r 0.884841 0 10 tcp 1040 ------- 0 4.4 10.0 102 1820
r 0.885673 0 10 tcp 1040 ------- 0 4.4 10.0 103 1822
r 0.886505 0 10 tcp 1040 ------- 0 4.4 10.0 104 1824
r 0.887337 0 10 tcp 1040 ------- 0 4.4 10.0 105 1826
r 0.888169 0 10 tcp 1040 ------- 0 4.4 10.0 106 1828
r 0.889001 0 10 tcp 1040 ------- 0 4.4 10.0 107 1830
r 0.889833 0 10 tcp 1040 ------- 0 4.4 10.0 108 1832
r 0.890665 0 10 tcp 1040 ------- 0 4.4 10.0 109 1834
r 0.891497 0 10 tcp 1040 ------- 0 4.4 10.0 110 1836
r 0.892329 0 10 tcp 1040 ------- 0 4.4 10.0 111 1838
r 0.893161 0 10 tcp 1040 ------- 0 4.4 10.0 112 1840
r 0.893993 0 10 tcp 1040 ------- 0 4.4 10.0 114 1843
r 0.894825 0 10 tcp 1040 ------- 0 4.4 10.0 115 1845
r 0.949737 0 10 tcp 1040 ------- 0 4.4 10.0 116 1978
r 0.950569 0 10 tcp 1040 ------- 0 4.4 10.0 117 1980
r 0.951401 0 10 tcp 1040 ------- 0 4.4 10.0 118 1982
r 0.952233 0 10 tcp 1040 ------- 0 4.4 10.0 119 1984
r 0.953065 0 10 tcp 1040 ------- 0 4.4 10.0 120 1986
r 0.953897 0 10 tcp 1040 ------- 0 4.4 10.0 121 1988
r 0.954729 0 10 tcp 1040 ------- 0 4.4 10.0 122 1990
r 0.955561 0 10 tcp 1040 ------- 0 4.4 10.0 123 1992
r 0.956393 0 10 tcp 1040 ------- 0 4.4 10.0 124 1994
r 0.957225 0 10 tcp 1040 ------- 0 4.4 10.0 125 1996
r 0.958057 0 10 tcp 1040 ------- 0 4.4 10.0 126 1998
r 0.958889 0 10 tcp 1040 ------- 0 4.4 10.0 127 2000
r 0.959721 0 10 tcp 1040 ------- 0 4.4 10.0 128 2002
r 0.984681 0 10 tcp 1040 ---A--- 0 4.4 10.0 113 2099
r 1.012138 0 10 tcp 1040 ------- 0 4.4 10.0 129 2155
r 1.01297 0 10 tcp 1040 ------- 0 4.4 10.0 130 2156
r 1.043754 0 10 tcp 1040 ------- 0 4.4 10.0 131 2211
r 1.044586 0 10 tcp 1040 ------- 0 4.4 10.0 132 2212
r 1.045418 0 10 tcp 1040 ------- 0 4.4 10.0 133 2214
r 1.04625 0 10 tcp 1040 ------- 0 4.4 10.0 134 2215
r 1.082026 0 10 tcp 1040 ------- 0 4.4 10.0 135 2295
r 1.082858 0 10 tcp 1040 ------- 0 4.4 10.0 136 2296
r 1.08369 0 10 tcp 1040 ------- 0 4.4 10.0 137 2298
r 1.084522 0 10 tcp 1040 ------- 0 4.4 10.0 138 2299
r 1.085354 0 10 tcp 1040 ------- 0 4.4 10.0 139 2301
r 1.086186 0 10 tcp 1040 ------- 0 4.4 10.0 140 2302
r 1.087018 0 10 tcp 1040 ------- 0 4.4 10.0 141 2304
r 1.12945 0 10 tcp 1040 ------- 0 4.4 10.0 142 2398
r 1.130282 0 10 tcp 1040 ------- 0 4.4 10.0 143 2400
r 1.131114 0 10 tcp 1040 ------- 0 4.4 10.0 144 2402
r 1.131946 0 10 tcp 1040 ------- 0 4.4 10.0 145 2404
r 1.132778 0 10 tcp 1040 ------- 0 4.4 10.0 146 2406
r 1.13361 0 10 tcp 1040 ------- 0 4.4 10.0 147 2408
r 1.134442 0 10 tcp 1040 ------- 0 4.4 10.0 148 2410
r 1.135274 0 10 tcp 1040 ------- 0 4.4 10.0 149 2411
r 1.185194 0 10 tcp 1040 ------- 0 4.4 10.0 150 2522
r 1.186026 0 10 tcp 1040 ------- 0 4.4 10.0 151 2524
r 1.186858 0 10 tcp 1040 ------- 0 4.4 10.0 152 2526
r 1.18769 0 10 tcp 1040 ------- 0 4.4 10.0 153 2528
r 1.188522 0 10 tcp 1040 ------- 0 4.4 10.0 154 2530
r 1.189354 0 10 tcp 1040 ------- 0 4.4 10.0 155 2532
r 1.190186 0 10 tcp 1040 ------- 0 4.4 10.0 156 2534
r 1.191018 0 10 tcp 1040 ------- 0 4.4 10.0 157 2536
r 1.19185 0 10 tcp 1040 ------- 0 4.4 10.0 158 2537
r 1.247594 0 10 tcp 1040 ------- 0 4.4 10.0 159 2664
r 1.248426 0 10 tcp 1040 ------- 0 4.4 10.0 160 2666
r 1.249258 0 10 tcp 1040 ------- 0 4.4 10.0 161 2668
r 1.25009 0 10 tcp 1040 ------- 0 4.4 10.0 162 2670
r 1.250922 0 10 tcp 1040 ------- 0 4.4 10.0 163 2672
r 1.251754 0 10 tcp 1040 ------- 0 4.4 10.0 164 2674
r 1.252586 0 10 tcp 1040 ------- 0 4.4 10.0 165 2676
r 1.253418 0 10 tcp 1040 ------- 0 4.4 10.0 166 2678
r 1.25425 0 10 tcp 1040 ------- 0 4.4 10.0 167 2680
r 1.31249 0 10 tcp 1040 ------- 0 4.4 10.0 168 2819
r 1.313322 0 10 tcp 1040 ------- 0 4.4 10.0 170 2822
r 1.314154 0 10 tcp 1040 ------- 0 4.4 10.0 171 2824
r 1.314986 0 10 tcp 1040 ------- 0 4.4 10.0 172 2826
r 1.315818 0 10 tcp 1040 ------- 0 4.4 10.0 173 2828
r 1.31665 0 10 tcp 1040 ------- 0 4.4 10.0 174 2830
r 1.317482 0 10 tcp 1040 ------- 0 4.4 10.0 175 2832
r 1.318314 0 10 tcp 1040 ------- 0 4.4 10.0 176 2834
r 1.319146 0 10 tcp 1040 ------- 0 4.4 10.0 177 2836
r 1.369066 0 10 tcp 1040 ------- 0 4.4 10.0 178 2973
r 1.369898 0 10 tcp 1040 ------- 0 4.4 10.0 179 2975
r 1.37073 0 10 tcp 1040 ------- 0 4.4 10.0 180 2977
r 1.371562 0 10 tcp 1040 ---A--- 0 4.4 10.0 169 2979
r 1.406506 0 10 tcp 1040 ------- 0 4.4 10.0 181 3089
r 1.407338 0 10 tcp 1040 ------- 0 4.4 10.0 182 3090
r 1.434795 0 10 tcp 1040 ------- 0 4.4 10.0 183 3155
r 1.435627 0 10 tcp 1040 ------- 0 4.4 10.0 184 3156
r 1.436459 0 10 tcp 1040 ------- 0 4.4 10.0 185 3157
r 1.437291 0 10 tcp 1040 ------- 0 4.4 10.0 186 3158
r 1.468075 0 10 tcp 1040 ------- 0 4.4 10.0 187 3221
r 1.468907 0 10 tcp 1040 ------- 0 4.4 10.0 188 3222
r 1.469739 0 10 tcp 1040 ------- 0 4.4 10.0 189 3224
r 1.470571 0 10 tcp 1040 ------- 0 4.4 10.0 190 3226
r 1.471403 0 10 tcp 1040 ------- 0 4.4 10.0 191 3228
r 1.505515 0 10 tcp 1040 ------- 0 4.4 10.0 192 3306
r 1.506347 0 10 tcp 1040 ------- 0 4.4 10.0 193 3308
r 1.507179 0 10 tcp 1040 ------- 0 4.4 10.0 194 3310
r 1.508011 0 10 tcp 1040 ------- 0 4.4 10.0 195 3311
r 1.508843 0 10 tcp 1040 ------- 0 4.4 10.0 196 3313
r 1.509675 0 10 tcp 1040 ------- 0 4.4 10.0 197 3315
r 1.551275 0 10 tcp 1040 ------- 0 4.4 10.0 198 3406
r 1.552107 0 10 tcp 1040 ------- 0 4.4 10.0 199 3408
r 1.552939 0 10 tcp 1040 ------- 0 4.4 10.0 200 3410
r 1.553771 0 10 tcp 1040 ------- 0 4.4 10.0 201 3412
r 1.554603 0 10 tcp 1040 ------- 0 4.4 10.0 202 3413
r 1.555435 0 10 tcp 1040 ------- 0 4.4 10.0 203 3415
r 1.556267 0 10 tcp 1040 ------- 0 4.4 10.0 204 3417
r 1.605355 0 10 tcp 1040 ------- 0 4.4 10.0 205 3526
r 1.606187 0 10 tcp 1040 ------- 0 4.4 10.0 206 3528
r 1.607019 0 10 tcp 1040 ------- 0 4.4 10.0 207 3530
r 1.607851 0 10 tcp 1040 ------- 0 4.4 10.0 208 3532
r 1.608683 0 10 tcp 1040 ------- 0 4.4 10.0 209 3534
r 1.609515 0 10 tcp 1040 ------- 0 4.4 10.0 210 3536
r 1.610347 0 10 tcp 1040 ------- 0 4.4 10.0 211 3537
r 1.611179 0 10 tcp 1040 ------- 0 4.4 10.0 212 3539
r 1.666923 0 10 tcp 1040 ------- 0 4.4 10.0 213 3665
r 1.667755 0 10 tcp 1040 ------- 0 4.4 10.0 214 3667
r 1.668587 0 10 tcp 1040 ------- 0 4.4 10.0 215 3669
r 1.669419 0 10 tcp 1040 ------- 0 4.4 10.0 216 3671
r 1.670251 0 10 tcp 1040 ------- 0 4.4 10.0 217 3673
r 1.671083 0 10 tcp 1040 ------- 0 4.4 10.0 218 3675
r 1.671915 0 10 tcp 1040 ------- 0 4.4 10.0 219 3677
r 1.672747 0 10 tcp 1040 ------- 0 4.4 10.0 220 3678
r 1.673579 0 10 tcp 1040 ------- 0 4.4 10.0 221 3680
r 1.731819 0 10 tcp 1040 ------- 0 4.4 10.0 222 3823
r 1.732651 0 10 tcp 1040 ------- 0 4.4 10.0 223 3825
r 1.733483 0 10 tcp 1040 ------- 0 4.4 10.0 224 3827
r 1.734315 0 10 tcp 1040 ------- 0 4.4 10.0 225 3829
r 1.735147 0 10 tcp 1040 ------- 0 4.4 10.0 226 3831
r 1.735979 0 10 tcp 1040 ------- 0 4.4 10.0 227 3833
r 1.736811 0 10 tcp 1040 ------- 0 4.4 10.0 228 3835
r 1.737643 0 10 tcp 1040 ------- 0 4.4 10.0 229 3837
r 1.738475 0 10 tcp 1040 ------- 0 4.4 10.0 230 3839
r 1.796715 0 10 tcp 1040 ------- 0 4.4 10.0 232 3983
r 1.797547 0 10 tcp 1040 ------- 0 4.4 10.0 233 3985
r 1.798379 0 10 tcp 1040 ------- 0 4.4 10.0 234 3987
r 1.799211 0 10 tcp 1040 ------- 0 4.4 10.0 235 3989
r 1.800043 0 10 tcp 1040 ------- 0 4.4 10.0 236 3991
r 1.800875 0 10 tcp 1040 ------- 0 4.4 10.0 237 3993
r 1.801707 0 10 tcp 1040 ------- 0 4.4 10.0 238 3995
r 1.802539 0 10 tcp 1040 ------- 0 4.4 10.0 239 3997
r 1.803371 0 10 tcp 1040 ------- 0 4.4 10.0 240 3999
r 1.830827 0 10 tcp 1040 ------- 0 4.4 10.0 241 4102
r 1.831659 0 10 tcp 1040 ------- 0 4.4 10.0 242 4104
r 1.832491 0 10 tcp 1040 ---A--- 0 4.4 10.0 231 4106
r 1.85662 0 10 tcp 1040 ------- 0 4.4 10.0 243 4161
r 1.857452 0 10 tcp 1040 ------- 0 4.4 10.0 244 4162
r 1.890733 0 10 tcp 1040 ------- 0 4.4 10.0 245 4215
r 1.891565 0 10 tcp 1040 ------- 0 4.4 10.0 246 4216
r 1.892397 0 10 tcp 1040 ------- 0 4.4 10.0 247 4217
r 1.893229 0 10 tcp 1040 ------- 0 4.4 10.0 248 4218
r 1.925677 0 10 tcp 1040 ------- 0 4.4 10.0 249 4295
r 1.926509 0 10 tcp 1040 ------- 0 4.4 10.0 250 4296
r 1.927341 0 10 tcp 1040 ------- 0 4.4 10.0 251 4298
r 1.928173 0 10 tcp 1040 ------- 0 4.4 10.0 252 4300
r 1.929005 0 10 tcp 1040 ------- 0 4.4 10.0 253 4302
r 1.968109 0 10 tcp 1040 ------- 0 4.4 10.0 254 4388
r 1.968941 0 10 tcp 1040 ------- 0 4.4 10.0 255 4390
r 1.969773 0 10 tcp 1040 ------- 0 4.4 10.0 256 4392
r 1.970605 0 10 tcp 1040 ------- 0 4.4 10.0 257 4393
r 1.971437 0 10 tcp 1040 ------- 0 4.4 10.0 258 4395
r 1.972269 0 10 tcp 1040 ------- 0 4.4 10.0 259 4397
r 2.018029 0 10 tcp 1040 ------- 0 4.4 10.0 260 4499
r 2.018861 0 10 tcp 1040 ------- 0 4.4 10.0 261 4501
r 2.019693 0 10 tcp 1040 ------- 0 4.4 10.0 262 4503
r 2.020525 0 10 tcp 1040 ------- 0 4.4 10.0 263 4505
r 2.021357 0 10 tcp 1040 ------- 0 4.4 10.0 264 4506
r 2.022189 0 10 tcp 1040 ------- 0 4.4 10.0 265 4508
r 2.023021 0 10 tcp 1040 ------- 0 4.4 10.0 266 4510
r 2.076269 0 10 tcp 1040 ------- 0 4.4 10.0 267 4629
r 2.077101 0 10 tcp 1040 ------- 0 4.4 10.0 268 4631
r 2.077933 0 10 tcp 1040 ------- 0 4.4 10.0 269 4633
r 2.078765 0 10 tcp 1040 ------- 0 4.4 10.0 270 4635
r 2.079597 0 10 tcp 1040 ------- 0 4.4 10.0 271 4637
r 2.080429 0 10 tcp 1040 ------- 0 4.4 10.0 272 4639
r 2.081261 0 10 tcp 1040 ------- 0 4.4 10.0 273 4640
r 2.082093 0 10 tcp 1040 ------- 0 4.4 10.0 274 4642
r 2.141165 0 10 tcp 1040 ------- 0 4.4 10.0 275 4779
r 2.141997 0 10 tcp 1040 ------- 0 4.4 10.0 276 4781
r 2.142829 0 10 tcp 1040 ------- 0 4.4 10.0 277 4783
r 2.143661 0 10 tcp 1040 ------- 0 4.4 10.0 278 4785
r 2.144493 0 10 tcp 1040 ------- 0 4.4 10.0 279 4787
r 2.145325 0 10 tcp 1040 ------- 0 4.4 10.0 280 4789
r 2.146157 0 10 tcp 1040 ------- 0 4.4 10.0 281 4791
r 2.146989 0 10 tcp 1040 ------- 0 4.4 10.0 283 4794
r 2.206061 0 10 tcp 1040 ------- 0 4.4 10.0 284 4943
r 2.206893 0 10 tcp 1040 ------- 0 4.4 10.0 285 4945
r 2.207725 0 10 tcp 1040 ------- 0 4.4 10.0 286 4947
r 2.208557 0 10 tcp 1040 ------- 0 4.4 10.0 287 4949
r 2.209389 0 10 tcp 1040 ------- 0 4.4 10.0 288 4951
r 2.210221 0 10 tcp 1040 ------- 0 4.4 10.0 289 4953
r 2.211053 0 10 tcp 1040 ------- 0 4.4 10.0 290 4955
r 2.211885 0 10 tcp 1040 ------- 0 4.4 10.0 291 4957
r 2.260141 0 10 tcp 1040 ------- 0 4.4 10.0 292 5086
r 2.260973 0 10 tcp 1040 ---A--- 0 4.4 10.0 282 5088
r 2.285102 0 10 tcp 1040 ------- 0 4.4 10.0 293 5169
r 2.285934 0 10 tcp 1040 ------- 0 4.4 10.0 294 5170
r 2.312558 0 10 tcp 1040 ------- 0 4.4 10.0 295 5215
r 2.31339 0 10 tcp 1040 ------- 0 4.4 10.0 296 5216
r 2.314222 0 10 tcp 1040 ------- 0 4.4 10.0 297 5218
r 2.315054 0 10 tcp 1040 ------- 0 4.4 10.0 298 5219
r 2.345838 0 10 tcp 1040 ------- 0 4.4 10.0 299 5281
r 2.34667 0 10 tcp 1040 ------- 0 4.4 10.0 300 5283
r 2.347502 0 10 tcp 1040 ------- 0 4.4 10.0 301 5285
r 2.348334 0 10 tcp 1040 ------- 0 4.4 10.0 302 5287
r 2.381614 0 10 tcp 1040 ------- 0 4.4 10.0 303 5364
r 2.382446 0 10 tcp 1040 ------- 0 4.4 10.0 304 5365
r 2.383278 0 10 tcp 1040 ------- 0 4.4 10.0 305 5367
r 2.38411 0 10 tcp 1040 ------- 0 4.4 10.0 306 5369
r 2.384942 0 10 tcp 1040 ------- 0 4.4 10.0 307 5371
r 2.42571 0 10 tcp 1040 ------- 0 4.4 10.0 308 5460
r 2.426542 0 10 tcp 1040 ------- 0 4.4 10.0 309 5462
r 2.427374 0 10 tcp 1040 ------- 0 4.4 10.0 310 5463
r 2.428206 0 10 tcp 1040 ------- 0 4.4 10.0 311 5465
r 2.429038 0 10 tcp 1040 ------- 0 4.4 10.0 312 5467
r 2.42987 0 10 tcp 1040 ------- 0 4.4 10.0 313 5469
r 2.478126 0 10 tcp 1040 ------- 0 4.4 10.0 314 5576
r 2.478958 0 10 tcp 1040 ------- 0 4.4 10.0 315 5578
r 2.47979 0 10 tcp 1040 ------- 0 4.4 10.0 316 5580
r 2.480622 0 10 tcp 1040 ------- 0 4.4 10.0 317 5582
r 2.481454 0 10 tcp 1040 ------- 0 4.4 10.0 318 5583
r 2.482286 0 10 tcp 1040 ------- 0 4.4 10.0 319 5585
r 2.483118 0 10 tcp 1040 ------- 0 4.4 10.0 320 5587
r 2.538862 0 10 tcp 1040 ------- 0 4.4 10.0 321 5712
r 2.539694 0 10 tcp 1040 ------- 0 4.4 10.0 322 5714
r 2.540526 0 10 tcp 1040 ------- 0 4.4 10.0 323 5716
r 2.541358 0 10 tcp 1040 ------- 0 4.4 10.0 324 5718
r 2.54219 0 10 tcp 1040 ------- 0 4.4 10.0 325 5720
r 2.543022 0 10 tcp 1040 ------- 0 4.4 10.0 326 5721
r 2.543854 0 10 tcp 1040 ------- 0 4.4 10.0 327 5723
r 2.544686 0 10 tcp 1040 ------- 0 4.4 10.0 328 5725
r 2.603758 0 10 tcp 1040 ------- 0 4.4 10.0 329 5868
r 2.60459 0 10 tcp 1040 ------- 0 4.4 10.0 330 5870
r 2.605422 0 10 tcp 1040 ------- 0 4.4 10.0 331 5872
r 2.606254 0 10 tcp 1040 ------- 0 4.4 10.0 332 5874
r 2.607086 0 10 tcp 1040 ------- 0 4.4 10.0 333 5876
r 2.607918 0 10 tcp 1040 ------- 0 4.4 10.0 334 5878
r 2.60875 0 10 tcp 1040 ------- 0 4.4 10.0 335 5880
r 2.609582 0 10 tcp 1040 ------- 0 4.4 10.0 337 5883
r 2.668654 0 10 tcp 1040 ------- 0 4.4 10.0 338 6029
r 2.669486 0 10 tcp 1040 ------- 0 4.4 10.0 339 6031
r 2.670318 0 10 tcp 1040 ------- 0 4.4 10.0 340 6033
r 2.67115 0 10 tcp 1040 ------- 0 4.4 10.0 341 6035
r 2.671982 0 10 tcp 1040 ------- 0 4.4 10.0 342 6037
r 2.672814 0 10 tcp 1040 ------- 0 4.4 10.0 343 6039
r 2.673646 0 10 tcp 1040 ------- 0 4.4 10.0 344 6041
r 2.674478 0 10 tcp 1040 ------- 0 4.4 10.0 345 6043
r 2.70859 0 10 tcp 1040 ------- 0 4.4 10.0 346 6155
r 2.709422 0 10 tcp 1040 ---A--- 0 4.4 10.0 336 6157
r 2.735215 0 10 tcp 1040 ------- 0 4.4 10.0 347 6218
r 2.736047 0 10 tcp 1040 ------- 0 4.4 10.0 348 6219
r 2.767664 0 10 tcp 1040 ------- 0 4.4 10.0 349 6269
r 2.768496 0 10 tcp 1040 ------- 0 4.4 10.0 350 6270
r 2.769328 0 10 tcp 1040 ------- 0 4.4 10.0 351 6271
r 2.77016 0 10 tcp 1040 ------- 0 4.4 10.0 352 6272
r 2.800944 0 10 tcp 1040 ------- 0 4.4 10.0 353 6343
r 2.801776 0 10 tcp 1040 ------- 0 4.4 10.0 354 6345
r 2.802608 0 10 tcp 1040 ------- 0 4.4 10.0 355 6347
r 2.80344 0 10 tcp 1040 ------- 0 4.4 10.0 356 6349
r 2.839216 0 10 tcp 1040 ------- 0 4.4 10.0 357 6429
r 2.840048 0 10 tcp 1040 ------- 0 4.4 10.0 358 6430
r 2.84088 0 10 tcp 1040 ------- 0 4.4 10.0 359 6432
r 2.841712 0 10 tcp 1040 ------- 0 4.4 10.0 360 6434
r 2.842544 0 10 tcp 1040 ------- 0 4.4 10.0 361 6436
r 2.885808 0 10 tcp 1040 ------- 0 4.4 10.0 362 6531
r 2.88664 0 10 tcp 1040 ------- 0 4.4 10.0 363 6533
r 2.887472 0 10 tcp 1040 ------- 0 4.4 10.0 364 6534
r 2.888304 0 10 tcp 1040 ------- 0 4.4 10.0 365 6536
r 2.889136 0 10 tcp 1040 ------- 0 4.4 10.0 366 6538
r 2.889968 0 10 tcp 1040 ------- 0 4.4 10.0 367 6540
r 2.94072 0 10 tcp 1040 ------- 0 4.4 10.0 368 6653
r 2.941552 0 10 tcp 1040 ------- 0 4.4 10.0 369 6655
r 2.942384 0 10 tcp 1040 ------- 0 4.4 10.0 370 6657
r 2.943216 0 10 tcp 1040 ------- 0 4.4 10.0 371 6659
r 2.944048 0 10 tcp 1040 ------- 0 4.4 10.0 372 6660
r 2.94488 0 10 tcp 1040 ------- 0 4.4 10.0 373 6662
r 2.945712 0 10 tcp 1040 ------- 0 4.4 10.0 374 6664
r 3.003952 0 10 tcp 1040 ------- 0 4.4 10.0 375 6795
r 3.004784 0 10 tcp 1040 ------- 0 4.4 10.0 376 6797
r 3.005616 0 10 tcp 1040 ------- 0 4.4 10.0 377 6799
r 3.006448 0 10 tcp 1040 ------- 0 4.4 10.0 378 6801
r 3.00728 0 10 tcp 1040 ------- 0 4.4 10.0 379 6803
r 3.008112 0 10 tcp 1040 ------- 0 4.4 10.0 380 6804
r 3.008944 0 10 tcp 1040 ------- 0 4.4 10.0 381 6806
r 3.009776 0 10 tcp 1040 ------- 0 4.4 10.0 382 6808
r 3.06968 0 10 tcp 1040 ------- 0 4.4 10.0 383 6988
r 3.070512 0 10 tcp 1040 ------- 0 4.4 10.0 384 6989
r 3.071344 0 10 tcp 1040 ------- 0 4.4 10.0 385 6990
r 3.072176 0 10 tcp 1040 ------- 0 4.4 10.0 386 6991
r 3.073008 0 10 tcp 1040 ------- 0 4.4 10.0 387 6992
r 3.07384 0 10 tcp 1040 ------- 0 4.4 10.0 388 6993
r 3.074672 0 10 tcp 1040 ------- 0 4.4 10.0 389 6994
r 3.075504 0 10 tcp 1040 ------- 0 4.4 10.0 390 6995
r 3.076336 0 10 tcp 1040 ------- 0 4.4 10.0 391 6996
r 3.135408 0 10 tcp 1040 ------- 0 4.4 10.0 392 7198
r 3.13624 0 10 tcp 1040 ------- 0 4.4 10.0 394 7202
r 3.137072 0 10 tcp 1040 ------- 0 4.4 10.0 395 7204
r 3.137904 0 10 tcp 1040 ------- 0 4.4 10.0 396 7206
r 3.138736 0 10 tcp 1040 ------- 0 4.4 10.0 397 7208
r 3.139568 0 10 tcp 1040 ------- 0 4.4 10.0 398 7210
r 3.1404 0 10 tcp 1040 ------- 0 4.4 10.0 399 7212
r 3.141232 0 10 tcp 1040 ------- 0 4.4 10.0 401 7215
r 3.171895 0 10 tcp 1040 ------- 0 4.4 10.0 402 7371
r 3.172727 0 10 tcp 1040 ------- 0 4.4 10.0 403 7372
r 3.173559 0 10 tcp 1040 ------- 0 4.4 10.0 404 7373
r 3.174391 0 10 tcp 1040 ---A--- 0 4.4 10.0 393 7374
r 3.204505 0 10 tcp 1040 ------- 0 4.4 10.0 400 7450
r 3.205337 0 10 tcp 1040 ------- 0 4.4 10.0 401 7451
r 3.241945 0 10 tcp 1040 ------- 0 4.4 10.0 405 7564
r 3.242777 0 10 tcp 1040 ------- 0 4.4 10.0 406 7565
r 3.243609 0 10 tcp 1040 ------- 0 4.4 10.0 407 7566
r 3.244441 0 10 tcp 1040 ------- 0 4.4 10.0 408 7568
r 3.282713 0 10 tcp 1040 ------- 0 4.4 10.0 409 7692
r 3.283545 0 10 tcp 1040 ------- 0 4.4 10.0 410 7693
r 3.284377 0 10 tcp 1040 ------- 0 4.4 10.0 411 7694
r 3.285209 0 10 tcp 1040 ------- 0 4.4 10.0 412 7695
r 3.286041 0 10 tcp 1040 ------- 0 4.4 10.0 413 7696
r 3.330969 0 10 tcp 1040 ------- 0 4.4 10.0 414 7805
r 3.331801 0 10 tcp 1040 ------- 0 4.4 10.0 415 7807
r 3.332633 0 10 tcp 1040 ------- 0 4.4 10.0 416 7829
r 3.333465 0 10 tcp 1040 ------- 0 4.4 10.0 417 7831
r 3.334297 0 10 tcp 1040 ------- 0 4.4 10.0 418 7832
r 3.335129 0 10 tcp 1040 ------- 0 4.4 10.0 419 7834
r 3.387545 0 10 tcp 1040 ------- 0 4.4 10.0 420 7975
r 3.388377 0 10 tcp 1040 ------- 0 4.4 10.0 421 7976
r 3.389209 0 10 tcp 1040 ------- 0 4.4 10.0 422 7977
r 3.390041 0 10 tcp 1040 ------- 0 4.4 10.0 423 7978
r 3.390873 0 10 tcp 1040 ------- 0 4.4 10.0 424 7979
r 3.391705 0 10 tcp 1040 ------- 0 4.4 10.0 425 7980
r 3.392537 0 10 tcp 1040 ------- 0 4.4 10.0 426 7982
r 3.452441 0 10 tcp 1040 ------- 0 4.4 10.0 427 8158
r 3.453273 0 10 tcp 1040 ------- 0 4.4 10.0 428 8159
r 3.454105 0 10 tcp 1040 ------- 0 4.4 10.0 429 8161
r 3.454937 0 10 tcp 1040 ------- 0 4.4 10.0 430 8163
r 3.455769 0 10 tcp 1040 ------- 0 4.4 10.0 431 8185
r 3.456601 0 10 tcp 1040 ------- 0 4.4 10.0 432 8187
r 3.457433 0 10 tcp 1040 ------- 0 4.4 10.0 433 8189
r 3.517337 0 10 tcp 1040 ------- 0 4.4 10.0 435 8383
r 3.518169 0 10 tcp 1040 ------- 0 4.4 10.0 436 8385
r 3.519001 0 10 tcp 1040 ------- 0 4.4 10.0 437 8387
r 3.519833 0 10 tcp 1040 ------- 0 4.4 10.0 438 8389
r 3.520665 0 10 tcp 1040 ------- 0 4.4 10.0 439 8406
r 3.521497 0 10 tcp 1040 ------- 0 4.4 10.0 440 8407
r 3.522329 0 10 tcp 1040 ------- 0 4.4 10.0 441 8408
r 3.578073 0 10 tcp 1040 ------- 0 4.4 10.0 442 8585
r 3.578905 0 10 tcp 1040 ------- 0 4.4 10.0 443 8586
r 3.579737 0 10 tcp 1040 ---A--- 0 4.4 10.0 434 8587
r 3.617177 0 10 tcp 1040 ------- 0 4.4 10.0 444 8761
r 3.618009 0 10 tcp 1040 ------- 0 4.4 10.0 445 8762
r 3.656534 0 10 tcp 1040 ------- 0 4.4 10.0 446 8884
r 3.657366 0 10 tcp 1040 ------- 0 4.4 10.0 447 8885
r 3.658198 0 10 tcp 1040 ------- 0 4.4 10.0 448 8886
r 3.65903 0 10 tcp 1040 ------- 0 4.4 10.0 449 8887
r 3.705622 0 10 tcp 1040 ------- 0 4.4 10.0 450 8993
r 3.706454 0 10 tcp 1040 ------- 0 4.4 10.0 451 8995
r 3.707286 0 10 tcp 1040 ------- 0 4.4 10.0 452 8997
r 3.708118 0 10 tcp 1040 ------- 0 4.4 10.0 453 9019
r 3.757206 0 10 tcp 1040 ------- 0 4.4 10.0 454 9159
r 3.758038 0 10 tcp 1040 ------- 0 4.4 10.0 455 9160
r 3.75887 0 10 tcp 1040 ------- 0 4.4 10.0 456 9161
r 3.759702 0 10 tcp 1040 ------- 0 4.4 10.0 457 9162
r 3.760534 0 10 tcp 1040 ------- 0 4.4 10.0 458 9163
r 3.815446 0 10 tcp 1040 ------- 0 4.4 10.0 459 9333
r 3.816278 0 10 tcp 1040 ------- 0 4.4 10.0 460 9334
r 3.81711 0 10 tcp 1040 ------- 0 4.4 10.0 461 9335
r 3.817942 0 10 tcp 1040 ------- 0 4.4 10.0 462 9336
r 3.818774 0 10 tcp 1040 ------- 0 4.4 10.0 463 9337
r 3.819606 0 10 tcp 1040 ------- 0 4.4 10.0 464 9338
r 3.881174 0 10 tcp 1040 ------- 0 4.4 10.0 465 9517
r 3.882006 0 10 tcp 1040 ------- 0 4.4 10.0 466 9518
r 3.882838 0 10 tcp 1040 ------- 0 4.4 10.0 467 9519
r 3.88367 0 10 tcp 1040 ------- 0 4.4 10.0 468 9521
r 3.884502 0 10 tcp 1040 ------- 0 4.4 10.0 469 9522
r 3.885334 0 10 tcp 1040 ------- 0 4.4 10.0 470 9524
r 3.94607 0 10 tcp 1040 ------- 0 4.4 10.0 472 9743
r 3.946902 0 10 tcp 1040 ------- 0 4.4 10.0 473 9745
r 3.947734 0 10 tcp 1040 ------- 0 4.4 10.0 474 9747
r 3.948566 0 10 tcp 1040 ------- 0 4.4 10.0 475 9749
r 3.949398 0 10 tcp 1040 ------- 0 4.4 10.0 476 9766
r 3.95023 0 10 tcp 1040 ------- 0 4.4 10.0 477 9767
r 3.951062 0 10 tcp 1040 ------- 0 4.4 10.0 478 9768
r 3.996822 0 10 tcp 1040 ------- 0 4.4 10.0 479 9927
r 3.997654 0 10 tcp 1040 ------- 0 4.4 10.0 480 9928
r 3.998486 0 10 tcp 1040 ---A--- 0 4.4 10.0 471 9929
r 4.032366 0 10 tcp 1040 ------- 0 4.4 10.0 481 10072
r 4.033198 0 10 tcp 1040 ------- 0 4.4 10.0 482 10073
r 4.076462 0 10 tcp 1040 ------- 0 4.4 10.0 483 10176
r 4.077294 0 10 tcp 1040 ------- 0 4.4 10.0 484 10177
r 4.078126 0 10 tcp 1040 ------- 0 4.4 10.0 485 10179
r 4.078958 0 10 tcp 1040 ------- 0 4.4 10.0 486 10180
r 4.133038 0 10 tcp 1040 ------- 0 4.4 10.0 487 10347
r 4.13387 0 10 tcp 1040 ------- 0 4.4 10.0 488 10348
r 4.134702 0 10 tcp 1040 ------- 0 4.4 10.0 489 10349
r 4.135534 0 10 tcp 1040 ------- 0 4.4 10.0 490 10350
r 4.193774 0 10 tcp 1040 ------- 0 4.4 10.0 491 10524
r 4.194606 0 10 tcp 1040 ------- 0 4.4 10.0 492 10525
r 4.195438 0 10 tcp 1040 ------- 0 4.4 10.0 493 10526
r 4.19627 0 10 tcp 1040 ------- 0 4.4 10.0 494 10527
r 4.197102 0 10 tcp 1040 ------- 0 4.4 10.0 495 10528
r 4.261166 0 10 tcp 1040 ------- 0 4.4 10.0 498 10736
r 4.261998 0 10 tcp 1040 ------- 0 4.4 10.0 501 10742
r 4.326894 0 10 tcp 1040 ------- 0 4.4 10.0 502 10955
r 4.327726 0 10 tcp 1040 ------- 0 4.4 10.0 503 10956
r 4.386798 0 10 tcp 1040 ---A--- 0 4.4 10.0 496 11135
r 4.430062 0 10 tcp 1040 ------- 0 4.4 10.0 497 11319
r 4.430894 0 10 tcp 1040 ------- 0 4.4 10.0 498 11320
r 4.479982 0 10 tcp 1040 ------- 0 4.4 10.0 499 11454
r 4.480814 0 10 tcp 1040 ------- 0 4.4 10.0 500 11455
r 4.481646 0 10 tcp 1040 ------- 0 4.4 10.0 501 11456
r 4.482478 0 10 tcp 1040 ------- 0 4.4 10.0 502 11457
r 4.542382 0 10 tcp 1040 ------- 0 4.4 10.0 504 11634
r 4.543214 0 10 tcp 1040 ------- 0 4.4 10.0 505 11635
r 4.544046 0 10 tcp 1040 ------- 0 4.4 10.0 506 11636
r 4.544878 0 10 tcp 1040 ------- 0 4.4 10.0 507 11637
r 4.54571 0 10 tcp 1040 ------- 0 4.4 10.0 508 11638
r 4.60811 0 10 tcp 1040 ------- 0 4.4 10.0 509 11848
r 4.608942 0 10 tcp 1040 ------- 0 4.4 10.0 510 11850
r 4.609774 0 10 tcp 1040 ------- 0 4.4 10.0 511 11852
r 4.610606 0 10 tcp 1040 ------- 0 4.4 10.0 512 11854
r 4.668014 0 10 tcp 1040 ------- 0 4.4 10.0 513 12055
r 4.668846 0 10 tcp 1040 ------- 0 4.4 10.0 514 12056
r 4.669678 0 10 tcp 1040 ------- 0 4.4 10.0 515 12057
r 4.67051 0 10 tcp 1040 ------- 0 4.4 10.0 516 12058
r 4.671342 0 10 tcp 1040 ------- 0 4.4 10.0 517 12059
r 4.725422 0 10 tcp 1040 ------- 0 4.4 10.0 518 12229
r 4.726254 0 10 tcp 1040 ------- 0 4.4 10.0 519 12230
r 4.727086 0 10 tcp 1040 ------- 0 4.4 10.0 520 12231
r 4.727918 0 10 tcp 1040 ------- 0 4.4 10.0 521 12232
r 4.72875 0 10 tcp 1040 ------- 0 4.4 10.0 522 12233
r 4.729582 0 10 tcp 1040 ------- 0 4.4 10.0 523 12234
r 4.781166 0 10 tcp 1040 ------- 0 4.4 10.0 524 12400
r 4.781998 0 10 tcp 1040 ------- 0 4.4 10.0 525 12401
r 4.78283 0 10 tcp 1040 ------- 0 4.4 10.0 526 12402
r 4.783662 0 10 tcp 1040 ------- 0 4.4 10.0 527 12404
r 4.784494 0 10 tcp 1040 ------- 0 4.4 10.0 528 12405
r 4.785326 0 10 tcp 1040 ------- 0 4.4 10.0 529 12407
r 4.786158 0 10 tcp 1040 ------- 0 4.4 10.0 530 12409
r 4.846894 0 10 tcp 1040 ------- 0 4.4 10.0 531 12584
r 4.847726 0 10 tcp 1040 ------- 0 4.4 10.0 532 12586
r 4.848558 0 10 tcp 1040 ------- 0 4.4 10.0 533 12588
r 4.84939 0 10 tcp 1040 ------- 0 4.4 10.0 534 12610
r 4.850222 0 10 tcp 1040 ------- 0 4.4 10.0 537 12615
r 4.851054 0 10 tcp 1040 ------- 0 4.4 10.0 538 12617
r 4.91179 0 10 tcp 1040 ------- 0 4.4 10.0 539 12813
r 4.912622 0 10 tcp 1040 ------- 0 4.4 10.0 540 12815
r 4.913454 0 10 tcp 1040 ------- 0 4.4 10.0 541 12832
r 4.914286 0 10 tcp 1040 ------- 0 4.4 10.0 542 12833
r 4.915118 0 10 tcp 1040 ------- 0 4.4 10.0 543 12834
r 4.91595 0 10 tcp 1040 ------- 0 4.4 10.0 544 12835
r 4.971694 0 10 tcp 1040 ---A--- 0 4.4 10.0 535 13008
r 5.012462 0 10 tcp 1040 ------- 0 4.4 10.0 536 13185
r 5.013294 0 10 tcp 1040 ------- 0 4.4 10.0 537 13186
r 5.051806 0 10 tcp 1040 ------- 0 4.4 10.0 545 13308
r 5.052638 0 10 tcp 1040 ------- 0 4.4 10.0 546 13309
r 5.05347 0 10 tcp 1040 ------- 0 4.4 10.0 547 13310
r 5.054302 0 10 tcp 1040 ------- 0 4.4 10.0 548 13311
r 5.098398 0 10 tcp 1040 ------- 0 4.4 10.0 549 13440
r 5.09923 0 10 tcp 1040 ------- 0 4.4 10.0 550 13442
r 5.100062 0 10 tcp 1040 ------- 0 4.4 10.0 551 13444
r 5.100894 0 10 tcp 1040 ------- 0 4.4 10.0 552 13446
r 5.154142 0 10 tcp 1040 ------- 0 4.4 10.0 553 13588