r 6.285948 0 13 tcp 40 ------- 0 4.7 13.0 0 7853
r 6.320028 0 13 tcp 1040 ------- 0 4.7 13.0 1 7943
r 6.32086 0 13 tcp 1040 ------- 0 4.7 13.0 2 7944
r 6.354972 0 13 tcp 1040 ------- 0 4.7 13.0 3 8036
r 6.355804 0 13 tcp 1040 ------- 0 4.7 13.0 4 8037
r 6.356636 0 13 tcp 1040 ------- 0 4.7 13.0 5 8039
r 6.357468 0 13 tcp 1040 ------- 0 4.7 13.0 6 8040
r 6.391612 0 13 tcp 1040 ------- 0 4.7 13.0 7 8131
r 6.392444 0 13 tcp 1040 ------- 0 4.7 13.0 8 8132
r 6.393276 0 13 tcp 1040 ------- 0 4.7 13.0 9 8134
r 6.394108 0 13 tcp 1040 ------- 0 4.7 13.0 10 8135
r 6.39494 0 13 tcp 1040 ------- 0 4.7 13.0 11 8137
r 6.395772 0 13 tcp 1040 ------- 0 4.7 13.0 12 8138
r 6.396604 0 13 tcp 1040 ------- 0 4.7 13.0 13 8142
r 6.397436 0 13 tcp 1040 ------- 0 4.7 13.0 14 8143
r 6.433212 0 13 tcp 1040 ------- 0 4.7 13.0 15 8240
r 6.434044 0 13 tcp 1040 ------- 0 4.7 13.0 16 8241
r 6.434876 0 13 tcp 1040 ------- 0 4.7 13.0 17 8243
r 6.435708 0 13 tcp 1040 ------- 0 4.7 13.0 18 8244
r 6.43654 0 13 tcp 1040 ------- 0 4.7 13.0 19 8246
r 6.437372 0 13 tcp 1040 ------- 0 4.7 13.0 20 8247
r 6.438204 0 13 tcp 1040 ------- 0 4.7 13.0 21 8251
r 6.439036 0 13 tcp 1040 ------- 0 4.7 13.0 22 8252
r 6.439868 0 13 tcp 1040 ------- 0 4.7 13.0 23 8254
r 6.4407 0 13 tcp 1040 ------- 0 4.7 13.0 24 8255
r 6.441532 0 13 tcp 1040 ------- 0 4.7 13.0 25 8258
r 6.442364 0 13 tcp 1040 ------- 0 4.7 13.0 26 8259
r 6.443196 0 13 tcp 1040 ------- 0 4.7 13.0 27 8260
r 6.444028 0 13 tcp 1040 ------- 0 4.7 13.0 28 8261
r 6.44486 0 13 tcp 1040 ------- 0 4.7 13.0 29 8264
r 6.445692 0 13 tcp 1040 ------- 0 4.7 13.0 30 8265
r 6.483132 0 13 tcp 1040 ------- 0 4.7 13.0 31 8360
r 6.483964 0 13 tcp 1040 ------- 0 4.7 13.0 32 8361
r 6.484796 0 13 tcp 1040 ------- 0 4.7 13.0 33 8363
r 6.485628 0 13 tcp 1040 ------- 0 4.7 13.0 34 8364
r 6.48646 0 13 tcp 1040 ------- 0 4.7 13.0 35 8366
r 6.487292 0 13 tcp 1040 ------- 0 4.7 13.0 36 8367
r 6.488124 0 13 tcp 1040 ------- 0 4.7 13.0 37 8369
r 6.488956 0 13 tcp 1040 ------- 0 4.7 13.0 38 8370
r 6.489788 0 13 tcp 1040 ------- 0 4.7 13.0 39 8372
r 6.49062 0 13 tcp 1040 ------- 0 4.7 13.0 40 8376
r 6.491452 0 13 tcp 1040 ------- 0 4.7 13.0 41 8378
r 6.492284 0 13 tcp 1040 ------- 0 4.7 13.0 42 8382
r 6.493116 0 13 tcp 1040 ------- 0 4.7 13.0 43 8384
r 6.493948 0 13 tcp 1040 ------- 0 4.7 13.0 44 8386
r 6.49478 0 13 tcp 1040 ------- 0 4.7 13.0 45 8388
r 6.495612 0 13 tcp 1040 ------- 0 4.7 13.0 46 8390
r 6.496444 0 13 tcp 1040 ------- 0 4.7 13.0 47 8392
r 6.497276 0 13 tcp 1040 ------- 0 4.7 13.0 48 8396
r 6.498108 0 13 tcp 1040 ------- 0 4.7 13.0 49 8398
r 6.49894 0 13 tcp 1040 ------- 0 4.7 13.0 50 8400
r 6.539708 0 13 tcp 1040 ------- 0 4.7 13.0 51 8509
r 6.54054 0 13 tcp 1040 ------- 0 4.7 13.0 52 8510
r 6.541372 0 13 tcp 1040 ------- 0 4.7 13.0 53 8512
r 6.542204 0 13 tcp 1040 ------- 0 4.7 13.0 54 8514
r 6.543036 0 13 tcp 1040 ------- 0 4.7 13.0 55 8517
r 6.543868 0 13 tcp 1040 ------- 0 4.7 13.0 56 8519
r 6.5447 0 13 tcp 1040 ------- 0 4.7 13.0 57 8520
r 6.545532 0 13 tcp 1040 ------- 0 4.7 13.0 58 8522
r 6.546364 0 13 tcp 1040 ------- 0 4.7 13.0 59 8524
r 6.547196 0 13 tcp 1040 ------- 0 4.7 13.0 60 8526
r 6.548028 0 13 tcp 1040 ------- 0 4.7 13.0 61 8530
r 6.54886 0 13 tcp 1040 ------- 0 4.7 13.0 62 8534
r 6.549692 0 13 tcp 1040 ------- 0 4.7 13.0 63 8536
r 6.550524 0 13 tcp 1040 ------- 0 4.7 13.0 64 8538
r 6.551356 0 13 tcp 1040 ------- 0 4.7 13.0 65 8540
r 6.552188 0 13 tcp 1040 ------- 0 4.7 13.0 66 8542
r 6.55302 0 13 tcp 1040 ------- 0 4.7 13.0 67 8544
r 6.553852 0 13 tcp 1040 ------- 0 4.7 13.0 68 8546
r 6.554684 0 13 tcp 1040 ------- 0 4.7 13.0 69 8550
r 6.555516 0 13 tcp 1040 ------- 0 4.7 13.0 70 8552
r 6.60294 0 13 tcp 1040 ------- 0 4.7 13.0 71 8673
r 6.603772 0 13 tcp 1040 ------- 0 4.7 13.0 72 8674
r 6.604604 0 13 tcp 1040 ------- 0 4.7 13.0 73 8677
r 6.605436 0 13 tcp 1040 ------- 0 4.7 13.0 74 8678
r 6.606268 0 13 tcp 1040 ------- 0 4.7 13.0 75 8680
r 6.6071 0 13 tcp 1040 ------- 0 4.7 13.0 76 8682
r 6.607932 0 13 tcp 1040 ------- 0 4.7 13.0 77 8686
r 6.608764 0 13 tcp 1040 ------- 0 4.7 13.0 78 8690
r 6.609596 0 13 tcp 1040 ------- 0 4.7 13.0 79 8692
r 6.610428 0 13 tcp 1040 ------- 0 4.7 13.0 80 8694
r 6.61126 0 13 tcp 1040 ------- 0 4.7 13.0 81 8696
r 6.612092 0 13 tcp 1040 ------- 0 4.7 13.0 82 8698
r 6.612924 0 13 tcp 1040 ------- 0 4.7 13.0 83 8700
r 6.613756 0 13 tcp 1040 ------- 0 4.7 13.0 84 8702
r 6.614588 0 13 tcp 1040 ------- 0 4.7 13.0 85 8706
r 6.61542 0 13 tcp 1040 ------- 0 4.7 13.0 86 8708
r 6.616252 0 13 tcp 1040 ------- 0 4.7 13.0 87 8710
r 6.617084 0 13 tcp 1040 ------- 0 4.7 13.0 88 8712
r 6.617916 0 13 tcp 1040 ------- 0 4.7 13.0 89 8716
r 6.618748 0 13 tcp 1040 ------- 0 4.7 13.0 90 8720
r 6.667836 0 13 tcp 1040 ------- 0 4.7 13.0 91 8852
r 6.668668 0 13 tcp 1040 ------- 0 4.7 13.0 92 8854
r 6.6695 0 13 tcp 1040 ------- 0 4.7 13.0 93 8856
r 6.670332 0 13 tcp 1040 ------- 0 4.7 13.0 94 8860
r 6.671164 0 13 tcp 1040 ------- 0 4.7 13.0 95 8862
r 6.671996 0 13 tcp 1040 ------- 0 4.7 13.0 96 8864
r 6.672828 0 13 tcp 1040 ------- 0 4.7 13.0 97 8868
r 6.67366 0 13 tcp 1040 ------- 0 4.7 13.0 98 8870
r 6.674492 0 13 tcp 1040 ------- 0 4.7 13.0 99 8874
r 6.675324 0 13 tcp 1040 ------- 0 4.7 13.0 100 8877
r 6.676156 0 13 tcp 1040 ------- 0 4.7 13.0 101 8879
r 6.676988 0 13 tcp 1040 ------- 0 4.7 13.0 102 8880
r 6.67782 0 13 tcp 1040 ------- 0 4.7 13.0 103 8882
r 6.678652 0 13 tcp 1040 ------- 0 4.7 13.0 104 8884
r 6.679484 0 13 tcp 1040 ------- 0 4.7 13.0 105 8886
r 6.680316 0 13 tcp 1040 ------- 0 4.7 13.0 106 8888
r 6.681148 0 13 tcp 1040 ------- 0 4.7 13.0 107 8890
r 6.68198 0 13 tcp 1040 ------- 0 4.7 13.0 108 8893
r 6.682812 0 13 tcp 1040 ------- 0 4.7 13.0 109 8894
r 6.683644 0 13 tcp 1040 ------- 0 4.7 13.0 110 8896
r 6.722748 0 13 tcp 1040 ------- 0 4.7 13.0 111 9022
r 6.72358 0 13 tcp 1040 ------- 0 4.7 13.0 112 9024
r 6.724412 0 13 tcp 1040 ------- 0 4.7 13.0 113 9026
r 6.725244 0 13 tcp 1040 ------- 0 4.7 13.0 114 9029
r 6.726076 0 13 tcp 1040 ------- 0 4.7 13.0 115 9030
r 6.726908 0 13 tcp 1040 ------- 0 4.7 13.0 116 9032
r 6.72774 0 13 tcp 1040 ------- 0 4.7 13.0 117 9034
r 6.728572 0 13 tcp 1040 ------- 0 4.7 13.0 118 9037
r 6.729404 0 13 tcp 1040 ------- 0 4.7 13.0 119 9038
r 6.730236 0 13 tcp 1040 ------- 0 4.7 13.0 120 9041
r 6.731068 0 13 tcp 1040 ------- 0 4.7 13.0 121 9042
r 6.7319 0 13 tcp 1040 ------- 0 4.7 13.0 122 9044
r 6.732732 0 13 tcp 1040 ------- 0 4.7 13.0 123 9046
r 6.733564 0 13 tcp 1040 ------- 0 4.7 13.0 124 9050
r 6.734396 0 13 tcp 1040 ------- 0 4.7 13.0 125 9054
r 6.735228 0 13 tcp 1040 ------- 0 4.7 13.0 126 9056
r 6.73606 0 13 tcp 1040 ------- 0 4.7 13.0 127 9058
r 6.736892 0 13 tcp 1040 ------- 0 4.7 13.0 128 9060
r 6.737724 0 13 tcp 1040 ------- 0 4.7 13.0 129 9062
r 6.738556 0 13 tcp 1040 ------- 0 4.7 13.0 130 9064
r 6.774332 0 13 tcp 1040 ------- 0 4.7 13.0 131 9170
r 6.775164 0 13 tcp 1040 ------- 0 4.7 13.0 132 9172
r 6.775996 0 13 tcp 1040 ------- 0 4.7 13.0 133 9175
r 6.776828 0 13 tcp 1040 ------- 0 4.7 13.0 134 9176
r 6.77766 0 13 tcp 1040 ------- 0 4.7 13.0 135 9178
r 6.778492 0 13 tcp 1040 ------- 0 4.7 13.0 136 9181
r 6.779324 0 13 tcp 1040 ------- 0 4.7 13.0 137 9182
r 6.780156 0 13 tcp 1040 ------- 0 4.7 13.0 138 9185
r 6.780988 0 13 tcp 1040 ------- 0 4.7 13.0 139 9186
r 6.78182 0 13 tcp 1040 ------- 0 4.7 13.0 140 9188
r 6.782652 0 13 tcp 1040 ------- 0 4.7 13.0 141 9190
r 6.783484 0 13 tcp 1040 ------- 0 4.7 13.0 142 9194
r 6.784316 0 13 tcp 1040 ------- 0 4.7 13.0 143 9196
r 6.785148 0 13 tcp 1040 ------- 0 4.7 13.0 144 9200
r 6.78598 0 13 tcp 1040 ------- 0 4.7 13.0 145 9202
r 6.786812 0 13 tcp 1040 ------- 0 4.7 13.0 146 9204
r 6.787644 0 13 tcp 1040 ------- 0 4.7 13.0 147 9206
r 6.788476 0 13 tcp 1040 ------- 0 4.7 13.0 148 9208
r 6.789308 0 13 tcp 1040 ------- 0 4.7 13.0 149 9210
r 6.79014 0 13 tcp 1040 ------- 0 4.7 13.0 150 9212
r 6.82758 0 13 tcp 1040 ------- 0 4.7 13.0 151 9316
r 6.828412 0 13 tcp 1040 ------- 0 4.7 13.0 152 9318
r 6.829244 0 13 tcp 1040 ------- 0 4.7 13.0 153 9320
r 6.830076 0 13 tcp 1040 ------- 0 4.7 13.0 154 9322
r 6.830908 0 13 tcp 1040 ------- 0 4.7 13.0 155 9325
r 6.83174 0 13 tcp 1040 ------- 0 4.7 13.0 156 9326
r 6.832572 0 13 tcp 1040 ------- 0 4.7 13.0 157 9328
r 6.833404 0 13 tcp 1040 ------- 0 4.7 13.0 158 9330
r 6.834236 0 13 tcp 1040 ------- 0 4.7 13.0 159 9333
r 6.835068 0 13 tcp 1040 ------- 0 4.7 13.0 160 9335
r 6.8359 0 13 tcp 1040 ------- 0 4.7 13.0 161 9336
r 6.836732 0 13 tcp 1040 ------- 0 4.7 13.0 162 9338
r 6.837564 0 13 tcp 1040 ------- 0 4.7 13.0 163 9340
r 6.838396 0 13 tcp 1040 ------- 0 4.7 13.0 164 9342
r 6.839228 0 13 tcp 1040 ------- 0 4.7 13.0 165 9346
r 6.84006 0 13 tcp 1040 ------- 0 4.7 13.0 166 9350
r 6.840892 0 13 tcp 1040 ------- 0 4.7 13.0 167 9352
r 6.841724 0 13 tcp 1040 ------- 0 4.7 13.0 168 9354
r 6.842556 0 13 tcp 1040 ------- 0 4.7 13.0 169 9356
r 6.843388 0 13 tcp 1040 ------- 0 4.7 13.0 170 9358
r 6.883324 0 13 tcp 1040 ------- 0 4.7 13.0 171 9467
r 6.884156 0 13 tcp 1040 ------- 0 4.7 13.0 172 9469
r 6.884988 0 13 tcp 1040 ------- 0 4.7 13.0 173 9471
r 6.88582 0 13 tcp 1040 ------- 0 4.7 13.0 174 9473
r 6.886652 0 13 tcp 1040 ------- 0 4.7 13.0 175 9476
r 6.887484 0 13 tcp 1040 ------- 0 4.7 13.0 176 9478
r 6.888316 0 13 tcp 1040 ------- 0 4.7 13.0 177 9479
r 6.889148 0 13 tcp 1040 ------- 0 4.7 13.0 178 9481
r 6.88998 0 13 tcp 1040 ------- 0 4.7 13.0 179 9484
r 6.890812 0 13 tcp 1040 ------- 0 4.7 13.0 180 9485
r 6.891644 0 13 tcp 1040 ------- 0 4.7 13.0 181 9488
r 6.892476 0 13 tcp 1040 ------- 0 4.7 13.0 182 9489
r 6.893308 0 13 tcp 1040 ------- 0 4.7 13.0 183 9491
r 6.89414 0 13 tcp 1040 ------- 0 4.7 13.0 184 9493
r 6.894972 0 13 tcp 1040 ------- 0 4.7 13.0 185 9497
r 6.895804 0 13 tcp 1040 ------- 0 4.7 13.0 186 9499
r 6.896636 0 13 tcp 1040 ------- 0 4.7 13.0 187 9503
r 6.897468 0 13 tcp 1040 ------- 0 4.7 13.0 188 9505
r 6.8983 0 13 tcp 1040 ------- 0 4.7 13.0 189 9507
r 6.899132 0 13 tcp 1040 ------- 0 4.7 13.0 190 9509
r 6.941564 0 13 tcp 1040 ------- 0 4.7 13.0 191 9628
r 6.942396 0 13 tcp 1040 ------- 0 4.7 13.0 192 9630
r 6.943228 0 13 tcp 1040 ------- 0 4.7 13.0 193 9633
r 6.94406 0 13 tcp 1040 ------- 0 4.7 13.0 194 9634
r 6.944892 0 13 tcp 1040 ------- 0 4.7 13.0 195 9637
r 6.945724 0 13 tcp 1040 ------- 0 4.7 13.0 196 9639
r 6.946556 0 13 tcp 1040 ------- 0 4.7 13.0 197 9641
r 6.947388 0 13 tcp 1040 ------- 0 4.7 13.0 198 9643
r 6.94822 0 13 tcp 1040 ------- 0 4.7 13.0 199 9644
r 6.949052 0 13 tcp 1040 ------- 0 4.7 13.0 200 9646
r 6.949884 0 13 tcp 1040 ------- 0 4.7 13.0 201 9648
r 6.950716 0 13 tcp 1040 ------- 0 4.7 13.0 202 9652
r 6.951548 0 13 tcp 1040 ------- 0 4.7 13.0 203 9654
r 6.95238 0 13 tcp 1040 ------- 0 4.7 13.0 204 9658
r 6.953212 0 13 tcp 1040 ------- 0 4.7 13.0 205 9660
r 6.954044 0 13 tcp 1040 ------- 0 4.7 13.0 206 9662
r 6.954876 0 13 tcp 1040 ------- 0 4.7 13.0 207 9664
r 6.955708 0 13 tcp 1040 ------- 0 4.7 13.0 208 9666
r 6.95654 0 13 tcp 1040 ------- 0 4.7 13.0 209 9668
r 6.957372 0 13 tcp 1040 ------- 0 4.7 13.0 210 9670
r 7.000636 0 13 tcp 1040 ------- 0 4.7 13.0 211 9794
r 7.001468 0 13 tcp 1040 ------- 0 4.7 13.0 212 9796
r 7.0023 0 13 tcp 1040 ------- 0 4.7 13.0 213 9798
r 7.003132 0 13 tcp 1040 ------- 0 4.7 13.0 214 9799
r 7.003964 0 13 tcp 1040 ------- 0 4.7 13.0 215 9801
r 7.004796 0 13 tcp 1040 ------- 0 4.7 13.0 216 9803
r 7.005628 0 13 tcp 1040 ------- 0 4.7 13.0 217 9807
r 7.00646 0 13 tcp 1040 ------- 0 4.7 13.0 218 9811
r 7.007292 0 13 tcp 1040 ------- 0 4.7 13.0 219 9813
r 7.008124 0 13 tcp 1040 ------- 0 4.7 13.0 220 9815
r 7.008956 0 13 tcp 1040 ------- 0 4.7 13.0 221 9817
r 7.009788 0 13 tcp 1040 ------- 0 4.7 13.0 222 9819
r 7.01062 0 13 tcp 1040 ------- 0 4.7 13.0 223 9821
r 7.011452 0 13 tcp 1040 ------- 0 4.7 13.0 224 9823
r 7.012284 0 13 tcp 1040 ------- 0 4.7 13.0 225 9827
r 7.013116 0 13 tcp 1040 ------- 0 4.7 13.0 226 9829
r 7.013948 0 13 tcp 1040 ------- 0 4.7 13.0 227 9833
r 7.01478 0 13 tcp 1040 ------- 0 4.7 13.0 228 9835
r 7.015612 0 13 tcp 1040 ------- 0 4.7 13.0 229 9839
r 7.016444 0 13 tcp 1040 ------- 0 4.7 13.0 230 9843
r 7.06054 0 13 tcp 1040 ------- 0 4.7 13.0 231 9962
r 7.061372 0 13 tcp 1040 ------- 0 4.7 13.0 232 9966
r 7.062204 0 13 tcp 1040 ------- 0 4.7 13.0 233 9968
r 7.063036 0 13 tcp 1040 ------- 0 4.7 13.0 234 9970
r 7.063868 0 13 tcp 1040 ------- 0 4.7 13.0 235 9972
r 7.0647 0 13 tcp 1040 ------- 0 4.7 13.0 236 9974
r 7.065532 0 13 tcp 1040 ------- 0 4.7 13.0 237 9976
r 7.066364 0 13 tcp 1040 ------- 0 4.7 13.0 238 9980
r 7.067196 0 13 tcp 1040 ------- 0 4.7 13.0 239 9982
r 7.068028 0 13 tcp 1040 ------- 0 4.7 13.0 240 9984
r 7.06886 0 13 tcp 1040 ------- 0 4.7 13.0 241 9988
r 7.069692 0 13 tcp 1040 ------- 0 4.7 13.0 242 9992
r 7.070524 0 13 tcp 1040 ------- 0 4.7 13.0 243 9994
r 7.071356 0 13 tcp 1040 ------- 0 4.7 13.0 244 9999
r 7.072188 0 13 tcp 1040 ------- 0 4.7 13.0 245 10001
r 7.07302 0 13 tcp 1040 ------- 0 4.7 13.0 246 10003
r 7.073852 0 13 tcp 1040 ------- 0 4.7 13.0 247 10004
r 7.074684 0 13 tcp 1040 ------- 0 4.7 13.0 248 10006
r 7.075516 0 13 tcp 1040 ------- 0 4.7 13.0 249 10008
r 7.076348 0 13 tcp 1040 ------- 0 4.7 13.0 250 10010
r 7.121276 0 13 tcp 1040 ------- 0 4.7 13.0 251 10135
r 7.122108 0 13 tcp 1040 ------- 0 4.7 13.0 252 10137
r 7.12294 0 13 tcp 1040 ------- 0 4.7 13.0 253 10141
r 7.123772 0 13 tcp 1040 ------- 0 4.7 13.0 254 10143
r 7.124604 0 13 tcp 1040 ------- 0 4.7 13.0 255 10147
r 7.125436 0 13 tcp 1040 ------- 0 4.7 13.0 256 10151
r 7.126268 0 13 tcp 1040 ------- 0 4.7 13.0 257 10154
r 7.1271 0 13 tcp 1040 ------- 0 4.7 13.0 258 10156
r 7.127932 0 13 tcp 1040 ------- 0 4.7 13.0 259 10158
r 7.128764 0 13 tcp 1040 ------- 0 4.7 13.0 260 10159
r 7.129596 0 13 tcp 1040 ------- 0 4.7 13.0 261 10161
r 7.130428 0 13 tcp 1040 ------- 0 4.7 13.0 262 10163
r 7.13126 0 13 tcp 1040 ------- 0 4.7 13.0 263 10165
r 7.132092 0 13 tcp 1040 ------- 0 4.7 13.0 264 10167
r 7.132924 0 13 tcp 1040 ------- 0 4.7 13.0 265 10170
r 7.133756 0 13 tcp 1040 ------- 0 4.7 13.0 266 10171
r 7.134588 0 13 tcp 1040 ------- 0 4.7 13.0 267 10174
r 7.13542 0 13 tcp 1040 ------- 0 4.7 13.0 268 10175
r 7.136252 0 13 tcp 1040 ------- 0 4.7 13.0 269 10178
r 7.137084 0 13 tcp 1040 ------- 0 4.7 13.0 270 10180
r 7.182844 0 13 tcp 1040 ------- 0 4.7 13.0 271 10312
r 7.183676 0 13 tcp 1040 ------- 0 4.7 13.0 272 10314
r 7.184508 0 13 tcp 1040 ------- 0 4.7 13.0 273 10316
r 7.18534 0 13 tcp 1040 ------- 0 4.7 13.0 274 10318
r 7.186172 0 13 tcp 1040 ------- 0 4.7 13.0 275 10320
r 7.187004 0 13 tcp 1040 ------- 0 4.7 13.0 276 10322
r 7.187836 0 13 tcp 1040 ------- 0 4.7 13.0 277 10325
r 7.188668 0 13 tcp 1040 ------- 0 4.7 13.0 278 10326
r 7.1895 0 13 tcp 1040 ------- 0 4.7 13.0 279 10329
r 7.190332 0 13 tcp 1040 ------- 0 4.7 13.0 280 10331
r 7.191164 0 13 tcp 1040 ------- 0 4.7 13.0 281 10332
r 7.191996 0 13 tcp 1040 ------- 0 4.7 13.0 282 10335
r 7.192828 0 13 tcp 1040 ------- 0 4.7 13.0 283 10336
r 7.19366 0 13 tcp 1040 ------- 0 4.7 13.0 284 10338
r 7.194492 0 13 tcp 1040 ------- 0 4.7 13.0 285 10340
r 7.195324 0 13 tcp 1040 ------- 0 4.7 13.0 286 10344
r 7.196156 0 13 tcp 1040 ------- 0 4.7 13.0 287 10346
r 7.196988 0 13 tcp 1040 ------- 0 4.7 13.0 288 10350
r 7.19782 0 13 tcp 1040 ------- 0 4.7 13.0 289 10352
r 7.198652 0 13 tcp 1040 ------- 0 4.7 13.0 290 10354
r 7.245244 0 13 tcp 1040 ------- 0 4.7 13.0 291 10486
r 7.246076 0 13 tcp 1040 ------- 0 4.7 13.0 292 10488
r 7.246908 0 13 tcp 1040 ------- 0 4.7 13.0 293 10489
r 7.24774 0 13 tcp 1040 ------- 0 4.7 13.0 294 10491
r 7.248572 0 13 tcp 1040 ------- 0 4.7 13.0 295 10493
r 7.249404 0 13 tcp 1040 ------- 0 4.7 13.0 296 10495
r 7.250236 0 13 tcp 1040 ------- 0 4.7 13.0 297 10499
r 7.251068 0 13 tcp 1040 ------- 0 4.7 13.0 298 10503
r 7.2519 0 13 tcp 1040 ------- 0 4.7 13.0 299 10505
r 7.252732 0 13 tcp 1040 ------- 0 4.7 13.0 300 10507
r 7.253564 0 13 tcp 1040 ------- 0 4.7 13.0 301 10509
r 7.254396 0 13 tcp 1040 ------- 0 4.7 13.0 302 10511
r 7.255228 0 13 tcp 1040 ------- 0 4.7 13.0 303 10513
r 7.25606 0 13 tcp 1040 ------- 0 4.7 13.0 304 10515
r 7.256892 0 13 tcp 1040 ------- 0 4.7 13.0 305 10519
r 7.257724 0 13 tcp 1040 ------- 0 4.7 13.0 306 10521
r 7.258556 0 13 tcp 1040 ------- 0 4.7 13.0 307 10525
r 7.259388 0 13 tcp 1040 ------- 0 4.7 13.0 308 10527
r 7.26022 0 13 tcp 1040 ------- 0 4.7 13.0 309 10531
r 7.261052 0 13 tcp 1040 ------- 0 4.7 13.0 310 10535
r 7.308476 0 13 tcp 1040 ------- 0 4.7 13.0 311 10664
r 7.309308 0 13 tcp 1040 ------- 0 4.7 13.0 312 10666
r 7.31014 0 13 tcp 1040 ------- 0 4.7 13.0 313 10668
r 7.310972 0 13 tcp 1040 ------- 0 4.7 13.0 314 10672
r 7.311804 0 13 tcp 1040 ------- 0 4.7 13.0 315 10674
r 7.312636 0 13 tcp 1040 ------- 0 4.7 13.0 316 10678
r 7.313468 0 13 tcp 1040 ------- 0 4.7 13.0 317 10680
r 7.3143 0 13 tcp 1040 ------- 0 4.7 13.0 318 10684
r 7.315132 0 13 tcp 1040 ------- 0 4.7 13.0 319 10686
r 7.315964 0 13 tcp 1040 ------- 0 4.7 13.0 320 10691
r 7.316796 0 13 tcp 1040 ------- 0 4.7 13.0 321 10692
r 7.317628 0 13 tcp 1040 ------- 0 4.7 13.0 322 10695
r 7.31846 0 13 tcp 1040 ------- 0 4.7 13.0 323 10696
r 7.319292 0 13 tcp 1040 ------- 0 4.7 13.0 324 10698
r 7.320124 0 13 tcp 1040 ------- 0 4.7 13.0 325 10700
r 7.320956 0 13 tcp 1040 ------- 0 4.7 13.0 326 10702
r 7.321788 0 13 tcp 1040 ------- 0 4.7 13.0 327 10704
r 7.32262 0 13 tcp 1040 ------- 0 4.7 13.0 328 10707
r 7.323452 0 13 tcp 1040 ------- 0 4.7 13.0 329 10709
r 7.324284 0 13 tcp 1040 ------- 0 4.7 13.0 330 10710
r 7.37254 0 13 tcp 1040 ------- 0 4.7 13.0 331 10849
r 7.373372 0 13 tcp 1040 ------- 0 4.7 13.0 332 10851
r 7.374204 0 13 tcp 1040 ------- 0 4.7 13.0 333 10853
r 7.375036 0 13 tcp 1040 ------- 0 4.7 13.0 334 10855
r 7.375868 0 13 tcp 1040 ------- 0 4.7 13.0 335 10857
r 7.3767 0 13 tcp 1040 ------- 0 4.7 13.0 336 10859
r 7.377532 0 13 tcp 1040 ------- 0 4.7 13.0 337 10862
r 7.378364 0 13 tcp 1040 ------- 0 4.7 13.0 338 10863
r 7.379196 0 13 tcp 1040 ------- 0 4.7 13.0 339 10866
r 7.380028 0 13 tcp 1040 ------- 0 4.7 13.0 340 10867
r 7.38086 0 13 tcp 1040 ------- 0 4.7 13.0 341 10870
r 7.381692 0 13 tcp 1040 ------- 0 4.7 13.0 342 10872
r 7.382524 0 13 tcp 1040 ------- 0 4.7 13.0 343 10873
r 7.383356 0 13 tcp 1040 ------- 0 4.7 13.0 344 10875
r 7.384188 0 13 tcp 1040 ------- 0 4.7 13.0 345 10877
r 7.38502 0 13 tcp 1040 ------- 0 4.7 13.0 346 10879
r 7.385852 0 13 tcp 1040 ------- 0 4.7 13.0 347 10883
r 7.386684 0 13 tcp 1040 ------- 0 4.7 13.0 348 10887
r 7.387516 0 13 tcp 1040 ------- 0 4.7 13.0 349 10889
r 7.388348 0 13 tcp 1040 ------- 0 4.7 13.0 350 10891
r 7.437436 0 13 tcp 1040 ------- 0 4.7 13.0 351 11028
r 7.438268 0 13 tcp 1040 ------- 0 4.7 13.0 352 11030
r 7.4391 0 13 tcp 1040 ------- 0 4.7 13.0 353 11032
r 7.439932 0 13 tcp 1040 ------- 0 4.7 13.0 354 11036
r 7.440764 0 13 tcp 1040 ------- 0 4.7 13.0 355 11040
r 7.441596 0 13 tcp 1040 ------- 0 4.7 13.0 356 11042
r 7.442428 0 13 tcp 1040 ------- 0 4.7 13.0 357 11044
r 7.44326 0 13 tcp 1040 ------- 0 4.7 13.0 358 11046
r 7.444092 0 13 tcp 1040 ------- 0 4.7 13.0 359 11048
r 7.444924 0 13 tcp 1040 ------- 0 4.7 13.0 360 11050
r 7.445756 0 13 tcp 1040 ------- 0 4.7 13.0 361 11052
r 7.446588 0 13 tcp 1040 ------- 0 4.7 13.0 362 11056
r 7.44742 0 13 tcp 1040 ------- 0 4.7 13.0 363 11058
r 7.448252 0 13 tcp 1040 ------- 0 4.7 13.0 364 11062
r 7.449084 0 13 tcp 1040 ------- 0 4.7 13.0 365 11064
r 7.449916 0 13 tcp 1040 ------- 0 4.7 13.0 366 11068
r 7.450748 0 13 tcp 1040 ------- 0 4.7 13.0 367 11070
r 7.45158 0 13 tcp 1040 ------- 0 4.7 13.0 368 11075
r 7.452412 0 13 tcp 1040 ------- 0 4.7 13.0 369 11076
r 7.453244 0 13 tcp 1040 ------- 0 4.7 13.0 370 11079
r 7.502332 0 13 tcp 1040 ------- 0 4.7 13.0 371 11216
r 7.503164 0 13 tcp 1040 ------- 0 4.7 13.0 372 11220
r 7.503996 0 13 tcp 1040 ------- 0 4.7 13.0 373 11222
r 7.504828 0 13 tcp 1040 ------- 0 4.7 13.0 374 11226
r 7.50566 0 13 tcp 1040 ------- 0 4.7 13.0 375 11229
r 7.506492 0 13 tcp 1040 ------- 0 4.7 13.0 376 11231
r 7.507324 0 13 tcp 1040 ------- 0 4.7 13.0 377 11232
r 7.508156 0 13 tcp 1040 ------- 0 4.7 13.0 378 11234
r 7.508988 0 13 tcp 1040 ------- 0 4.7 13.0 379 11236
r 7.50982 0 13 tcp 1040 ------- 0 4.7 13.0 380 11238
r 7.510652 0 13 tcp 1040 ------- 0 4.7 13.0 381 11240
r 7.511484 0 13 tcp 1040 ------- 0 4.7 13.0 382 11242
r 7.512316 0 13 tcp 1040 ------- 0 4.7 13.0 383 11245
r 7.513148 0 13 tcp 1040 ------- 0 4.7 13.0 384 11246
r 7.51398 0 13 tcp 1040 ------- 0 4.7 13.0 385 11249
r 7.514812 0 13 tcp 1040 ------- 0 4.7 13.0 386 11250
r 7.515644 0 13 tcp 1040 ------- 0 4.7 13.0 387 11253
r 7.516476 0 13 tcp 1040 ------- 0 4.7 13.0 388 11255
r 7.517308 0 13 tcp 1040 ------- 0 4.7 13.0 389 11256
r 7.51814 0 13 tcp 1040 ------- 0 4.7 13.0 390 11258
r 7.567228 0 13 tcp 1040 ------- 0 4.7 13.0 391 11402
r 7.56806 0 13 tcp 1040 ------- 0 4.7 13.0 392 11404
r 7.568892 0 13 tcp 1040 ------- 0 4.7 13.0 393 11406
r 7.569724 0 13 tcp 1040 ------- 0 4.7 13.0 394 11407
r 7.570556 0 13 tcp 1040 ------- 0 4.7 13.0 395 11410
r 7.571388 0 13 tcp 1040 ------- 0 4.7 13.0 396 11411
r 7.57222 0 13 tcp 1040 ------- 0 4.7 13.0 397 11413
r 7.573052 0 13 tcp 1040 ------- 0 4.7 13.0 398 11415
r 7.573884 0 13 tcp 1040 ------- 0 4.7 13.0 399 11419
r 7.574716 0 13 tcp 1040 ------- 0 4.7 13.0 400 11423
r 7.575548 0 13 tcp 1040 ------- 0 4.7 13.0 401 11425
r 7.57638 0 13 tcp 1040 ------- 0 4.7 13.0 402 11427
r 7.577212 0 13 tcp 1040 ------- 0 4.7 13.0 403 11429
r 7.578044 0 13 tcp 1040 ------- 0 4.7 13.0 404 11431
r 7.578876 0 13 tcp 1040 ------- 0 4.7 13.0 405 11433
r 7.579708 0 13 tcp 1040 ------- 0 4.7 13.0 406 11435
r 7.58054 0 13 tcp 1040 ------- 0 4.7 13.0 407 11439
r 7.581372 0 13 tcp 1040 ------- 0 4.7 13.0 408 11441
r 7.582204 0 13 tcp 1040 ------- 0 4.7 13.0 409 11445
r 7.583036 0 13 tcp 1040 ------- 0 4.7 13.0 410 11447
r 7.619644 0 13 tcp 1040 ------- 0 4.7 13.0 411 11570
r 7.620476 0 13 tcp 1040 ------- 0 4.7 13.0 412 11572
r 7.621308 0 13 tcp 1040 ------- 0 4.7 13.0 413 11574
r 7.62214 0 13 tcp 1040 ------- 0 4.7 13.0 414 11578
r 7.622972 0 13 tcp 1040 ------- 0 4.7 13.0 415 11580
r 7.623804 0 13 tcp 1040 ------- 0 4.7 13.0 416 11584
r 7.624636 0 13 tcp 1040 ------- 0 4.7 13.0 417 11588
r 7.625468 0 13 tcp 1040 ------- 0 4.7 13.0 418 11590
r 7.6263 0 13 tcp 1040 ------- 0 4.7 13.0 419 11594
r 7.627132 0 13 tcp 1040 ------- 0 4.7 13.0 420 11597
r 7.627964 0 13 tcp 1040 ------- 0 4.7 13.0 421 11599
r 7.628796 0 13 tcp 1040 ------- 0 4.7 13.0 422 11600
r 7.629628 0 13 tcp 1040 ------- 0 4.7 13.0 423 11602
r 7.63046 0 13 tcp 1040 ------- 0 4.7 13.0 424 11604
r 7.631292 0 13 tcp 1040 ------- 0 4.7 13.0 425 11606
r 7.632124 0 13 tcp 1040 ------- 0 4.7 13.0 426 11608
r 7.632956 0 13 tcp 1040 ------- 0 4.7 13.0 427 11610
r 7.633788 0 13 tcp 1040 ------- 0 4.7 13.0 428 11613
r 7.63462 0 13 tcp 1040 ------- 0 4.7 13.0 429 11614
r 7.635452 0 13 tcp 1040 ------- 0 4.7 13.0 430 11617
r 7.671228 0 13 tcp 1040 ------- 0 4.7 13.0 431 11719
r 7.67206 0 13 tcp 1040 ------- 0 4.7 13.0 432 11721
r 7.672892 0 13 tcp 1040 ------- 0 4.7 13.0 433 11723
r 7.673724 0 13 tcp 1040 ------- 0 4.7 13.0 434 11725
r 7.674556 0 13 tcp 1040 ------- 0 4.7 13.0 435 11729
r 7.675388 0 13 tcp 1040 ------- 0 4.7 13.0 436 11731
r 7.67622 0 13 tcp 1040 ------- 0 4.7 13.0 437 11735
r 7.677052 0 13 tcp 1040 ------- 0 4.7 13.0 438 11737
r 7.677884 0 13 tcp 1040 ------- 0 4.7 13.0 439 11741
r 7.678716 0 13 tcp 1040 ------- 0 4.7 13.0 440 11745
r 7.679548 0 13 tcp 1040 ------- 0 4.7 13.0 441 11748
r 7.68038 0 13 tcp 1040 ------- 0 4.7 13.0 442 11750
r 7.681212 0 13 tcp 1040 ------- 0 4.7 13.0 443 11752
r 7.682044 0 13 tcp 1040 ------- 0 4.7 13.0 444 11753
r 7.682876 0 13 tcp 1040 ------- 0 4.7 13.0 445 11755
r 7.683708 0 13 tcp 1040 ------- 0 4.7 13.0 446 11757
r 7.68454 0 13 tcp 1040 ------- 0 4.7 13.0 447 11759
r 7.685372 0 13 tcp 1040 ------- 0 4.7 13.0 448 11761
r 7.686204 0 13 tcp 1040 ------- 0 4.7 13.0 449 11764
r 7.687036 0 13 tcp 1040 ------- 0 4.7 13.0 450 11765
r 7.724476 0 13 tcp 1040 ------- 0 4.7 13.0 451 11869
r 7.725308 0 13 tcp 1040 ------- 0 4.7 13.0 452 11871
r 7.72614 0 13 tcp 1040 ------- 0 4.7 13.0 453 11873
r 7.726972 0 13 tcp 1040 ------- 0 4.7 13.0 454 11875
r 7.727804 0 13 tcp 1040 ------- 0 4.7 13.0 455 11877
r 7.728636 0 13 tcp 1040 ------- 0 4.7 13.0 456 11879
r 7.729468 0 13 tcp 1040 ------- 0 4.7 13.0 457 11883
r 7.7303 0 13 tcp 1040 ------- 0 4.7 13.0 458 11885
r 7.731132 0 13 tcp 1040 ------- 0 4.7 13.0 459 11889
r 7.731964 0 13 tcp 1040 ------- 0 4.7 13.0 460 11891
r 7.732796 0 13 tcp 1040 ------- 0 4.7 13.0 461 11895
r 7.733628 0 13 tcp 1040 ------- 0 4.7 13.0 462 11897
r 7.73446 0 13 tcp 1040 ------- 0 4.7 13.0 463 11902
r 7.735292 0 13 tcp 1040 ------- 0 4.7 13.0 464 11904
r 7.736124 0 13 tcp 1040 ------- 0 4.7 13.0 465 11906
r 7.736956 0 13 tcp 1040 ------- 0 4.7 13.0 466 11907
r 7.737788 0 13 tcp 1040 ------- 0 4.7 13.0 467 11909
r 7.73862 0 13 tcp 1040 ------- 0 4.7 13.0 468 11911
r 7.739452 0 13 tcp 1040 ------- 0 4.7 13.0 469 11913
r 7.740284 0 13 tcp 1040 ------- 0 4.7 13.0 470 11915
r 7.781052 0 13 tcp 1040 ------- 0 4.7 13.0 471 12025
r 7.781884 0 13 tcp 1040 ------- 0 4.7 13.0 472 12027
r 7.782716 0 13 tcp 1040 ------- 0 4.7 13.0 473 12029
r 7.783548 0 13 tcp 1040 ------- 0 4.7 13.0 474 12031
r 7.78438 0 13 tcp 1040 ------- 0 4.7 13.0 475 12033
r 7.785212 0 13 tcp 1040 ------- 0 4.7 13.0 476 12035
r 7.786044 0 13 tcp 1040 ------- 0 4.7 13.0 477 12037
r 7.786876 0 13 tcp 1040 ------- 0 4.7 13.0 478 12041
r 7.787708 0 13 tcp 1040 ------- 0 4.7 13.0 479 12043
r 7.78854 0 13 tcp 1040 ------- 0 4.7 13.0 480 12047
r 7.789372 0 13 tcp 1040 ------- 0 4.7 13.0 481 12051
r 7.790204 0 13 tcp 1040 ------- 0 4.7 13.0 482 12053
r 7.791036 0 13 tcp 1040 ------- 0 4.7 13.0 483 12057
r 7.791868 0 13 tcp 1040 ------- 0 4.7 13.0 484 12060
r 7.7927 0 13 tcp 1040 ------- 0 4.7 13.0 485 12062
r 7.793532 0 13 tcp 1040 ------- 0 4.7 13.0 486 12063
r 7.794364 0 13 tcp 1040 ------- 0 4.7 13.0 487 12065
r 7.795196 0 13 tcp 1040 ------- 0 4.7 13.0 488 12067
r 7.796028 0 13 tcp 1040 ------- 0 4.7 13.0 489 12069
r 7.79686 0 13 tcp 1040 ------- 0 4.7 13.0 490 12071
r 7.83846 0 13 tcp 1040 ------- 0 4.7 13.0 491 12186
r 7.839292 0 13 tcp 1040 ------- 0 4.7 13.0 492 12188
r 7.840124 0 13 tcp 1040 ------- 0 4.7 13.0 493 12190
r 7.840956 0 13 tcp 1040 ------- 0 4.7 13.0 494 12194
r 7.841788 0 13 tcp 1040 ------- 0 4.7 13.0 495 12196
r 7.84262 0 13 tcp 1040 ------- 0 4.7 13.0 496 12200
r 7.843452 0 13 tcp 1040 ------- 0 4.7 13.0 497 12202
r 7.844284 0 13 tcp 1040 ------- 0 4.7 13.0 498 12206
r 7.845116 0 13 tcp 1040 ------- 0 4.7 13.0 499 12210
r 7.845948 0 13 tcp 1040 ------- 0 4.7 13.0 500 12213
r 7.84678 0 13 tcp 1040 ------- 0 4.7 13.0 501 12214
r 7.847612 0 13 tcp 1040 ------- 0 4.7 13.0 502 12217
r 7.848444 0 13 tcp 1040 ------- 0 4.7 13.0 503 12218
r 7.849276 0 13 tcp 1040 ------- 0 4.7 13.0 504 12220
r 7.850108 0 13 tcp 1040 ------- 0 4.7 13.0 505 12222
r 7.85094 0 13 tcp 1040 ------- 0 4.7 13.0 506 12224
r 7.851772 0 13 tcp 1040 ------- 0 4.7 13.0 507 12226
r 7.852604 0 13 tcp 1040 ------- 0 4.7 13.0 508 12229
r 7.853436 0 13 tcp 1040 ------- 0 4.7 13.0 509 12231
r 7.854268 0 13 tcp 1040 ------- 0 4.7 13.0 510 12233
r 7.8967 0 13 tcp 1040 ------- 0 4.7 13.0 511 12351
r 7.897532 0 13 tcp 1040 ------- 0 4.7 13.0 512 12355
r 7.898364 0 13 tcp 1040 ------- 0 4.7 13.0 513 12359
r 7.899196 0 13 tcp 1040 ------- 0 4.7 13.0 514 12361
r 7.900028 0 13 tcp 1040 ------- 0 4.7 13.0 515 12365
r 7.90086 0 13 tcp 1040 ------- 0 4.7 13.0 516 12368
r 7.901692 0 13 tcp 1040 ------- 0 4.7 13.0 517 12370
r 7.902524 0 13 tcp 1040 ------- 0 4.7 13.0 518 12371
r 7.903356 0 13 tcp 1040 ------- 0 4.7 13.0 519 12373
r 7.904188 0 13 tcp 1040 ------- 0 4.7 13.0 520 12375
r 7.90502 0 13 tcp 1040 ------- 0 4.7 13.0 521 12377
r 7.905852 0 13 tcp 1040 ------- 0 4.7 13.0 522 12379
r 7.906684 0 13 tcp 1040 ------- 0 4.7 13.0 523 12381
r 7.907516 0 13 tcp 1040 ------- 0 4.7 13.0 524 12384
r 7.908348 0 13 tcp 1040 ------- 0 4.7 13.0 525 12385
r 7.90918 0 13 tcp 1040 ------- 0 4.7 13.0 526 12388
r 7.910012 0 13 tcp 1040 ------- 0 4.7 13.0 527 12390
r 7.910844 0 13 tcp 1040 ------- 0 4.7 13.0 528 12392
r 7.911676 0 13 tcp 1040 ------- 0 4.7 13.0 529 12394
r 7.912508 0 13 tcp 1040 ------- 0 4.7 13.0 530 12395
r 7.955772 0 13 tcp 1040 ------- 0 4.7 13.0 531 12519
r 7.956604 0 13 tcp 1040 ------- 0 4.7 13.0 532 12521
r 7.957436 0 13 tcp 1040 ------- 0 4.7 13.0 533 12522
r 7.958268 0 13 tcp 1040 ------- 0 4.7 13.0 534 12524
r 7.9591 0 13 tcp 1040 ------- 0 4.7 13.0 535 12526
r 7.959932 0 13 tcp 1040 ------- 0 4.7 13.0 536 12528
r 7.960764 0 13 tcp 1040 ------- 0 4.7 13.0 537 12530
r 7.961596 0 13 tcp 1040 ------- 0 4.7 13.0 538 12533
r 7.962428 0 13 tcp 1040 ------- 0 4.7 13.0 539 12534
r 7.96326 0 13 tcp 1040 ------- 0 4.7 13.0 540 12537
r 7.964092 0 13 tcp 1040 ------- 0 4.7 13.0 541 12538
r 7.964924 0 13 tcp 1040 ------- 0 4.7 13.0 542 12540
r 7.965756 0 13 tcp 1040 ------- 0 4.7 13.0 543 12543
r 7.966588 0 13 tcp 1040 ------- 0 4.7 13.0 544 12545
r 7.96742 0 13 tcp 1040 ------- 0 4.7 13.0 545 12546
r 7.968252 0 13 tcp 1040 ------- 0 4.7 13.0 546 12548
r 7.969084 0 13 tcp 1040 ------- 0 4.7 13.0 547 12550
r 7.969916 0 13 tcp 1040 ------- 0 4.7 13.0 548 12554
r 7.970748 0 13 tcp 1040 ------- 0 4.7 13.0 549 12558
r 7.97158 0 13 tcp 1040 ------- 0 4.7 13.0 550 12560
r 8.015676 0 13 tcp 1040 ------- 0 4.7 13.0 551 12681
r 8.016508 0 13 tcp 1040 ------- 0 4.7 13.0 552 12684
r 8.01734 0 13 tcp 1040 ------- 0 4.7 13.0 553 12685
r 8.018172 0 13 tcp 1040 ------- 0 4.7 13.0 554 12688
r 8.019004 0 13 tcp 1040 ------- 0 4.7 13.0 555 12689
r 8.019836 0 13 tcp 1040 ------- 0 4.7 13.0 556 12691
r 8.020668 0 13 tcp 1040 ------- 0 4.7 13.0 557 12694
r 8.0215 0 13 tcp 1040 ------- 0 4.7 13.0 558 12695
r 8.022332 0 13 tcp 1040 ------- 0 4.7 13.0 559 12697
r 8.023164 0 13 tcp 1040 ------- 0 4.7 13.0 560 12699
r 8.023996 0 13 tcp 1040 ------- 0 4.7 13.0 561 12703
r 8.024828 0 13 tcp 1040 ------- 0 4.7 13.0 562 12705
r 8.02566 0 13 tcp 1040 ------- 0 4.7 13.0 563 12709