r 9.220508 0 11 tcp 40 ------- 0 4.5 11.0 0 16077
r 9.268732 0 11 tcp 1040 ------- 0 4.5 11.0 1 16201
r 9.269564 0 11 tcp 1040 ------- 0 4.5 11.0 2 16202
r 9.318652 0 11 tcp 1040 ------- 0 4.5 11.0 3 16333
r 9.319484 0 11 tcp 1040 ------- 0 4.5 11.0 4 16334
r 9.320316 0 11 tcp 1040 ------- 0 4.5 11.0 5 16336
r 9.321148 0 11 tcp 1040 ------- 0 4.5 11.0 6 16337
r 9.370236 0 11 tcp 1040 ------- 0 4.5 11.0 7 16471
r 9.371068 0 11 tcp 1040 ------- 0 4.5 11.0 8 16472
r 9.3719 0 11 tcp 1040 ------- 0 4.5 11.0 9 16474
r 9.372732 0 11 tcp 1040 ------- 0 4.5 11.0 10 16475
r 9.373564 0 11 tcp 1040 ------- 0 4.5 11.0 11 16477
r 9.374396 0 11 tcp 1040 ------- 0 4.5 11.0 12 16478
r 9.375228 0 11 tcp 1040 ------- 0 4.5 11.0 13 16480
r 9.37606 0 11 tcp 1040 ------- 0 4.5 11.0 14 16481
r 9.42598 0 11 tcp 1040 ------- 0 4.5 11.0 15 16618
r 9.426812 0 11 tcp 1040 ------- 0 4.5 11.0 16 16619
r 9.427644 0 11 tcp 1040 ------- 0 4.5 11.0 17 16620
r 9.428476 0 11 tcp 1040 ------- 0 4.5 11.0 18 16621
r 9.429308 0 11 tcp 1040 ------- 0 4.5 11.0 19 16622
r 9.43014 0 11 tcp 1040 ------- 0 4.5 11.0 20 16623
r 9.430972 0 11 tcp 1040 ------- 0 4.5 11.0 21 16625
r 9.431804 0 11 tcp 1040 ------- 0 4.5 11.0 22 16626
r 9.432636 0 11 tcp 1040 ------- 0 4.5 11.0 23 16628
r 9.433468 0 11 tcp 1040 ------- 0 4.5 11.0 24 16629
r 9.4343 0 11 tcp 1040 ------- 0 4.5 11.0 25 16631
r 9.435132 0 11 tcp 1040 ------- 0 4.5 11.0 26 16632
r 9.435964 0 11 tcp 1040 ------- 0 4.5 11.0 27 16634
r 9.436796 0 11 tcp 1040 ------- 0 4.5 11.0 28 16635
r 9.437628 0 11 tcp 1040 ------- 0 4.5 11.0 29 16637
r 9.43846 0 11 tcp 1040 ------- 0 4.5 11.0 30 16638
r 9.489212 0 11 tcp 1040 ------- 0 4.5 11.0 31 16775
r 9.490044 0 11 tcp 1040 ------- 0 4.5 11.0 32 16776
r 9.490876 0 11 tcp 1040 ------- 0 4.5 11.0 33 16778
r 9.491708 0 11 tcp 1040 ------- 0 4.5 11.0 34 16779
r 9.49254 0 11 tcp 1040 ------- 0 4.5 11.0 35 16781
r 9.493372 0 11 tcp 1040 ------- 0 4.5 11.0 37 16784
r 9.494204 0 11 tcp 1040 ------- 0 4.5 11.0 39 16787
r 9.495036 0 11 tcp 1040 ------- 0 4.5 11.0 40 16789
r 9.495868 0 11 tcp 1040 ------- 0 4.5 11.0 41 16791
r 9.4967 0 11 tcp 1040 ------- 0 4.5 11.0 42 16793
r 9.497532 0 11 tcp 1040 ------- 0 4.5 11.0 43 16795
r 9.498364 0 11 tcp 1040 ------- 0 4.5 11.0 44 16800
r 9.499196 0 11 tcp 1040 ------- 0 4.5 11.0 45 16802
r 9.500028 0 11 tcp 1040 ------- 0 4.5 11.0 46 16803
r 9.50086 0 11 tcp 1040 ------- 0 4.5 11.0 47 16805
r 9.501692 0 11 tcp 1040 ------- 0 4.5 11.0 48 16807
r 9.502524 0 11 tcp 1040 ------- 0 4.5 11.0 49 16809
r 9.503356 0 11 tcp 1040 ------- 0 4.5 11.0 50 16815
r 9.554108 0 11 tcp 1040 ------- 0 4.5 11.0 51 16949
r 9.55494 0 11 tcp 1040 ------- 0 4.5 11.0 52 16951
r 9.555772 0 11 tcp 1040 ------- 0 4.5 11.0 53 16953
r 9.556604 0 11 tcp 1040 ------- 0 4.5 11.0 54 16957
r 9.557436 0 11 tcp 1040 ------- 0 4.5 11.0 55 16961
r 9.558268 0 11 tcp 1040 ---A--- 0 4.5 11.0 36 16965
r 9.60902 0 11 tcp 1040 ------- 0 4.5 11.0 38 17116
r 9.609852 0 11 tcp 1040 ------- 0 4.5 11.0 39 17117
r 9.660604 0 11 tcp 1040 ------- 0 4.5 11.0 56 17249
r 9.661436 0 11 tcp 1040 ------- 0 4.5 11.0 57 17250
r 9.662268 0 11 tcp 1040 ------- 0 4.5 11.0 58 17251
r 9.6631 0 11 tcp 1040 ------- 0 4.5 11.0 59 17255
r 9.713852 0 11 tcp 1040 ------- 0 4.5 11.0 60 17388
r 9.714684 0 11 tcp 1040 ------- 0 4.5 11.0 61 17389
r 9.715516 0 11 tcp 1040 ------- 0 4.5 11.0 62 17390
r 9.716348 0 11 tcp 1040 ------- 0 4.5 11.0 63 17392
r 9.71718 0 11 tcp 1040 ------- 0 4.5 11.0 64 17393
r 9.718012 0 11 tcp 1040 ------- 0 4.5 11.0 65 17397
r 9.718844 0 11 tcp 1040 ------- 0 4.5 11.0 66 17398
r 9.769596 0 11 tcp 1040 ------- 0 4.5 11.0 67 17531
r 9.770428 0 11 tcp 1040 ------- 0 4.5 11.0 68 17532
r 9.77126 0 11 tcp 1040 ------- 0 4.5 11.0 69 17533
r 9.772092 0 11 tcp 1040 ------- 0 4.5 11.0 70 17534
r 9.772924 0 11 tcp 1040 ------- 0 4.5 11.0 71 17536
r 9.773756 0 11 tcp 1040 ------- 0 4.5 11.0 72 17537
r 9.774588 0 11 tcp 1040 ------- 0 4.5 11.0 73 17541
r 9.77542 0 11 tcp 1040 ------- 0 4.5 11.0 74 17543
r 9.776252 0 11 tcp 1040 ------- 0 4.5 11.0 75 17546
r 9.777084 0 11 tcp 1040 ------- 0 4.5 11.0 76 17547
r 9.827836 0 11 tcp 1040 ------- 0 4.5 11.0 77 17679
r 9.828668 0 11 tcp 1040 ------- 0 4.5 11.0 78 17683
r 9.8295 0 11 tcp 1040 ------- 0 4.5 11.0 79 17686
r 9.830332 0 11 tcp 1040 ------- 0 4.5 11.0 80 17688
r 9.831164 0 11 tcp 1040 ------- 0 4.5 11.0 81 17689
r 9.831996 0 11 tcp 1040 ------- 0 4.5 11.0 82 17691
r 9.832828 0 11 tcp 1040 ------- 0 4.5 11.0 83 17693
r 9.83366 0 11 tcp 1040 ------- 0 4.5 11.0 84 17694
r 9.834492 0 11 tcp 1040 ------- 0 4.5 11.0 85 17696
r 9.835324 0 11 tcp 1040 ------- 0 4.5 11.0 86 17698
r 9.836156 0 11 tcp 1040 ------- 0 4.5 11.0 87 17700
r 9.886908 0 11 tcp 1040 ------- 0 4.5 11.0 88 17836
r 9.88774 0 11 tcp 1040 ------- 0 4.5 11.0 89 17838
r 9.888572 0 11 tcp 1040 ------- 0 4.5 11.0 90 17840
r 9.889404 0 11 tcp 1040 ------- 0 4.5 11.0 91 17842
r 9.890236 0 11 tcp 1040 ------- 0 4.5 11.0 92 17844
r 9.891068 0 11 tcp 1040 ------- 0 4.5 11.0 93 17846
r 9.8919 0 11 tcp 1040 ------- 0 4.5 11.0 94 17848
r 9.892732 0 11 tcp 1040 ------- 0 4.5 11.0 95 17850
r 9.893564 0 11 tcp 1040 ------- 0 4.5 11.0 96 17851
r 9.894396 0 11 tcp 1040 ------- 0 4.5 11.0 97 17853
r 9.895228 0 11 tcp 1040 ------- 0 4.5 11.0 98 17858
r 9.89606 0 11 tcp 1040 ------- 0 4.5 11.0 99 17860
r 9.946812 0 11 tcp 1040 ------- 0 4.5 11.0 100 17995
r 9.947644 0 11 tcp 1040 ------- 0 4.5 11.0 101 17997
r 9.948476 0 11 tcp 1040 ------- 0 4.5 11.0 102 17999
r 9.949308 0 11 tcp 1040 ------- 0 4.5 11.0 103 18004
r 9.95014 0 11 tcp 1040 ------- 0 4.5 11.0 104 18005
r 9.950972 0 11 tcp 1040 ------- 0 4.5 11.0 105 18007
r 9.951804 0 11 tcp 1040 ------- 0 4.5 11.0 106 18009
r 9.952636 0 11 tcp 1040 ------- 0 4.5 11.0 107 18013
r 9.953468 0 11 tcp 1040 ------- 0 4.5 11.0 108 18017
r 9.9543 0 11 tcp 1040 ------- 0 4.5 11.0 109 18019
r 9.955132 0 11 tcp 1040 ------- 0 4.5 11.0 110 18020
r 9.955964 0 11 tcp 1040 ------- 0 4.5 11.0 111 18022
r 9.956796 0 11 tcp 1040 ------- 0 4.5 11.0 112 18024
