r 8.416764 0 6 tcp 40 ------- 0 4.0 6.0 0 13803
r 8.466652 0 6 tcp 1040 ------- 0 4.0 6.0 1 13957
r 8.467484 0 6 tcp 1040 ------- 0 4.0 6.0 2 13958
r 8.518236 0 6 tcp 1040 ------- 0 4.0 6.0 3 14097
r 8.519068 0 6 tcp 1040 ------- 0 4.0 6.0 4 14098
r 8.5199 0 6 tcp 1040 ------- 0 4.0 6.0 5 14100
r 8.520732 0 6 tcp 1040 ------- 0 4.0 6.0 6 14101
r 8.571484 0 6 tcp 1040 ------- 0 4.0 6.0 7 14243
r 8.572316 0 6 tcp 1040 ------- 0 4.0 6.0 8 14244
r 8.573148 0 6 tcp 1040 ------- 0 4.0 6.0 9 14247
r 8.57398 0 6 tcp 1040 ------- 0 4.0 6.0 10 14248
r 8.574812 0 6 tcp 1040 ------- 0 4.0 6.0 11 14249
r 8.575644 0 6 tcp 1040 ------- 0 4.0 6.0 12 14250
r 8.576476 0 6 tcp 1040 ------- 0 4.0 6.0 13 14252
r 8.577308 0 6 tcp 1040 ------- 0 4.0 6.0 14 14253
r 8.62806 0 6 tcp 1040 ------- 0 4.0 6.0 15 14397
r 8.628892 0 6 tcp 1040 ------- 0 4.0 6.0 16 14398
r 8.629724 0 6 tcp 1040 ------- 0 4.0 6.0 17 14401
r 8.630556 0 6 tcp 1040 ------- 0 4.0 6.0 18 14402
r 8.631388 0 6 tcp 1040 ------- 0 4.0 6.0 19 14403
r 8.63222 0 6 tcp 1040 ------- 0 4.0 6.0 20 14404
r 8.633052 0 6 tcp 1040 ------- 0 4.0 6.0 21 14406
r 8.633884 0 6 tcp 1040 ------- 0 4.0 6.0 22 14407
r 8.634716 0 6 tcp 1040 ------- 0 4.0 6.0 23 14409
r 8.635548 0 6 tcp 1040 ------- 0 4.0 6.0 24 14410
r 8.63638 0 6 tcp 1040 ------- 0 4.0 6.0 25 14412
r 8.637212 0 6 tcp 1040 ------- 0 4.0 6.0 26 14413
r 8.638044 0 6 tcp 1040 ------- 0 4.0 6.0 27 14418
r 8.638876 0 6 tcp 1040 ------- 0 4.0 6.0 28 14419
r 8.639708 0 6 tcp 1040 ------- 0 4.0 6.0 29 14420
r 8.64054 0 6 tcp 1040 ------- 0 4.0 6.0 30 14421
r 8.691292 0 6 tcp 1040 ------- 0 4.0 6.0 31 14565
r 8.692124 0 6 tcp 1040 ------- 0 4.0 6.0 32 14566
r 8.692956 0 6 tcp 1040 ------- 0 4.0 6.0 33 14568
r 8.693788 0 6 tcp 1040 ------- 0 4.0 6.0 34 14569
r 8.69462 0 6 tcp 1040 ------- 0 4.0 6.0 35 14571
r 8.695452 0 6 tcp 1040 ------- 0 4.0 6.0 37 14577
r 8.696284 0 6 tcp 1040 ------- 0 4.0 6.0 38 14578
r 8.697116 0 6 tcp 1040 ------- 0 4.0 6.0 40 14581
r 8.697948 0 6 tcp 1040 ------- 0 4.0 6.0 41 14583
r 8.69878 0 6 tcp 1040 ------- 0 4.0 6.0 42 14585
r 8.699612 0 6 tcp 1040 ------- 0 4.0 6.0 43 14589
r 8.700444 0 6 tcp 1040 ------- 0 4.0 6.0 44 14593
r 8.701276 0 6 tcp 1040 ------- 0 4.0 6.0 45 14597
r 8.702108 0 6 tcp 1040 ------- 0 4.0 6.0 46 14599
r 8.70294 0 6 tcp 1040 ------- 0 4.0 6.0 47 14601
r 8.703772 0 6 tcp 1040 ------- 0 4.0 6.0 48 14603
r 8.704604 0 6 tcp 1040 ------- 0 4.0 6.0 49 14605
r 8.705436 0 6 tcp 1040 ------- 0 4.0 6.0 50 14609
r 8.756188 0 6 tcp 1040 ------- 0 4.0 6.0 51 14753
r 8.75702 0 6 tcp 1040 ------- 0 4.0 6.0 52 14755
r 8.757852 0 6 tcp 1040 ------- 0 4.0 6.0 53 14757
r 8.758684 0 6 tcp 1040 ------- 0 4.0 6.0 54 14759
r 8.759516 0 6 tcp 1040 ------- 0 4.0 6.0 55 14763
r 8.760348 0 6 tcp 1040 ---A--- 0 4.0 6.0 36 14767
r 8.8111 0 6 tcp 1040 ------- 0 4.0 6.0 39 14931
r 8.811932 0 6 tcp 1040 ------- 0 4.0 6.0 40 14932
r 8.862684 0 6 tcp 1040 ------- 0 4.0 6.0 56 15075
r 8.863516 0 6 tcp 1040 ------- 0 4.0 6.0 57 15076
r 8.864348 0 6 tcp 1040 ------- 0 4.0 6.0 58 15077
r 8.86518 0 6 tcp 1040 ------- 0 4.0 6.0 59 15079
r 8.903452 0 6 tcp 1040 ------- 0 4.0 6.0 60 15208
r 8.904284 0 6 tcp 1040 ------- 0 4.0 6.0 61 15209
r 8.905116 0 6 tcp 1040 ------- 0 4.0 6.0 62 15210
r 8.905948 0 6 tcp 1040 ------- 0 4.0 6.0 63 15211
r 8.90678 0 6 tcp 1040 ------- 0 4.0 6.0 64 15212
r 8.907612 0 6 tcp 1040 ------- 0 4.0 6.0 65 15214
r 8.908444 0 6 tcp 1040 ------- 0 4.0 6.0 66 15215
r 8.942556 0 6 tcp 1040 ------- 0 4.0 6.0 67 15318
r 8.943388 0 6 tcp 1040 ------- 0 4.0 6.0 68 15319
r 8.94422 0 6 tcp 1040 ------- 0 4.0 6.0 69 15323
r 8.945052 0 6 tcp 1040 ------- 0 4.0 6.0 70 15324
r 8.945884 0 6 tcp 1040 ------- 0 4.0 6.0 71 15326
r 8.946716 0 6 tcp 1040 ------- 0 4.0 6.0 72 15327
r 8.947548 0 6 tcp 1040 ------- 0 4.0 6.0 73 15329
r 8.94838 0 6 tcp 1040 ------- 0 4.0 6.0 74 15331
r 8.949212 0 6 tcp 1040 ------- 0 4.0 6.0 75 15333
r 8.950044 0 6 tcp 1040 ------- 0 4.0 6.0 76 15335
r 8.984156 0 6 tcp 1040 ------- 0 4.0 6.0 77 15430
r 8.984988 0 6 tcp 1040 ------- 0 4.0 6.0 78 15433
r 8.98582 0 6 tcp 1040 ------- 0 4.0 6.0 79 15434
r 8.986652 0 6 tcp 1040 ------- 0 4.0 6.0 80 15435
r 8.987484 0 6 tcp 1040 ------- 0 4.0 6.0 81 15437
r 8.988316 0 6 tcp 1040 ------- 0 4.0 6.0 82 15439
r 8.989148 0 6 tcp 1040 ------- 0 4.0 6.0 83 15441
r 8.98998 0 6 tcp 1040 ------- 0 4.0 6.0 84 15442
r 8.990812 0 6 tcp 1040 ------- 0 4.0 6.0 85 15444
r 8.991644 0 6 tcp 1040 ------- 0 4.0 6.0 86 15446
r 8.992476 0 6 tcp 1040 ------- 0 4.0 6.0 87 15448
r 9.026588 0 6 tcp 1040 ------- 0 4.0 6.0 88 15546
r 9.02742 0 6 tcp 1040 ------- 0 4.0 6.0 89 15550
r 9.028252 0 6 tcp 1040 ------- 0 4.0 6.0 90 15552
r 9.029084 0 6 tcp 1040 ------- 0 4.0 6.0 91 15554
r 9.029916 0 6 tcp 1040 ------- 0 4.0 6.0 92 15556
r 9.030748 0 6 tcp 1040 ------- 0 4.0 6.0 93 15558
r 9.03158 0 6 tcp 1040 ------- 0 4.0 6.0 94 15560
r 9.032412 0 6 tcp 1040 ------- 0 4.0 6.0 95 15562
r 9.033244 0 6 tcp 1040 ------- 0 4.0 6.0 96 15563
r 9.034076 0 6 tcp 1040 ------- 0 4.0 6.0 97 15566
r 9.034908 0 6 tcp 1040 ------- 0 4.0 6.0 98 15567
r 9.03574 0 6 tcp 1040 ------- 0 4.0 6.0 99 15569
r 9.069852 0 6 tcp 1040 ------- 0 4.0 6.0 100 15663
r 9.070684 0 6 tcp 1040 ------- 0 4.0 6.0 101 15665
r 9.071516 0 6 tcp 1040 ------- 0 4.0 6.0 102 15667
r 9.072348 0 6 tcp 1040 ------- 0 4.0 6.0 103 15669
r 9.07318 0 6 tcp 1040 ------- 0 4.0 6.0 104 15671
r 9.074012 0 6 tcp 1040 ------- 0 4.0 6.0 105 15673
r 9.074844 0 6 tcp 1040 ------- 0 4.0 6.0 106 15675
r 9.075676 0 6 tcp 1040 ------- 0 4.0 6.0 107 15680
r 9.076508 0 6 tcp 1040 ------- 0 4.0 6.0 108 15681
r 9.07734 0 6 tcp 1040 ------- 0 4.0 6.0 109 15683
r 9.078172 0 6 tcp 1040 ------- 0 4.0 6.0 110 15684
r 9.079004 0 6 tcp 1040 ------- 0 4.0 6.0 111 15686
r 9.079836 0 6 tcp 1040 ------- 0 4.0 6.0 112 15688
r 9.113948 0 6 tcp 1040 ------- 0 4.0 6.0 113 15786
r 9.11478 0 6 tcp 1040 ------- 0 4.0 6.0 114 15789
r 9.115612 0 6 tcp 1040 ------- 0 4.0 6.0 115 15790
r 9.116444 0 6 tcp 1040 ------- 0 4.0 6.0 116 15792
r 9.117276 0 6 tcp 1040 ------- 0 4.0 6.0 117 15794
r 9.118108 0 6 tcp 1040 ------- 0 4.0 6.0 118 15798
r 9.11894 0 6 tcp 1040 ------- 0 4.0 6.0 119 15803
r 9.119772 0 6 tcp 1040 ------- 0 4.0 6.0 120 15804
r 9.120604 0 6 tcp 1040 ------- 0 4.0 6.0 121 15805
r 9.121436 0 6 tcp 1040 ------- 0 4.0 6.0 122 15808
r 9.122268 0 6 tcp 1040 ------- 0 4.0 6.0 123 15809
r 9.1231 0 6 tcp 1040 ------- 0 4.0 6.0 124 15810
r 9.123932 0 6 tcp 1040 ------- 0 4.0 6.0 125 15811
r 9.124764 0 6 tcp 1040 ------- 0 4.0 6.0 126 15813
r 9.158876 0 6 tcp 1040 ------- 0 4.0 6.0 127 15907
r 9.159708 0 6 tcp 1040 ------- 0 4.0 6.0 128 15909
r 9.16054 0 6 tcp 1040 ------- 0 4.0 6.0 129 15911
r 9.161372 0 6 tcp 1040 ------- 0 4.0 6.0 130 15913
r 9.162204 0 6 tcp 1040 ------- 0 4.0 6.0 131 15919
r 9.163036 0 6 tcp 1040 ------- 0 4.0 6.0 132 15921
r 9.163868 0 6 tcp 1040 ------- 0 4.0 6.0 133 15923
r 9.1647 0 6 tcp 1040 ------- 0 4.0 6.0 134 15925
r 9.165532 0 6 tcp 1040 ------- 0 4.0 6.0 135 15927
r 9.166364 0 6 tcp 1040 ------- 0 4.0 6.0 136 15929
r 9.167196 0 6 tcp 1040 ------- 0 4.0 6.0 137 15931
r 9.168028 0 6 tcp 1040 ------- 0 4.0 6.0 138 15933
r 9.16886 0 6 tcp 1040 ------- 0 4.0 6.0 139 15935
r 9.169692 0 6 tcp 1040 ------- 0 4.0 6.0 140 15936
r 9.170524 0 6 tcp 1040 ------- 0 4.0 6.0 141 15939
r 9.204636 0 6 tcp 1040 ------- 0 4.0 6.0 142 16030
r 9.205468 0 6 tcp 1040 ------- 0 4.0 6.0 143 16032
r 9.2063 0 6 tcp 1040 ------- 0 4.0 6.0 144 16034
r 9.207132 0 6 tcp 1040 ------- 0 4.0 6.0 145 16036
r 9.207964 0 6 tcp 1040 ------- 0 4.0 6.0 146 16038
r 9.208796 0 6 tcp 1040 ------- 0 4.0 6.0 147 16040
r 9.209628 0 6 tcp 1040 ------- 0 4.0 6.0 148 16042
r 9.21046 0 6 tcp 1040 ------- 0 4.0 6.0 149 16044
r 9.211292 0 6 tcp 1040 ------- 0 4.0 6.0 150 16046
r 9.212124 0 6 tcp 1040 ------- 0 4.0 6.0 151 16051
r 9.212956 0 6 tcp 1040 ------- 0 4.0 6.0 152 16052
r 9.213788 0 6 tcp 1040 ------- 0 4.0 6.0 153 16054
r 9.21462 0 6 tcp 1040 ------- 0 4.0 6.0 154 16056
r 9.215452 0 6 tcp 1040 ------- 0 4.0 6.0 155 16058
r 9.216284 0 6 tcp 1040 ------- 0 4.0 6.0 156 16059
r 9.217116 0 6 tcp 1040 ------- 0 4.0 6.0 157 16065
r 9.25126 0 6 tcp 1040 ------- 0 4.0 6.0 158 16157
r 9.252092 0 6 tcp 1040 ------- 0 4.0 6.0 159 16158
r 9.252924 0 6 tcp 1040 ------- 0 4.0 6.0 160 16160
r 9.253756 0 6 tcp 1040 ------- 0 4.0 6.0 161 16162
r 9.254588 0 6 tcp 1040 ------- 0 4.0 6.0 162 16166
r 9.25542 0 6 tcp 1040 ------- 0 4.0 6.0 163 16172
r 9.256252 0 6 tcp 1040 ------- 0 4.0 6.0 164 16173
r 9.257084 0 6 tcp 1040 ------- 0 4.0 6.0 165 16174
r 9.257916 0 6 tcp 1040 ------- 0 4.0 6.0 166 16175
r 9.258748 0 6 tcp 1040 ------- 0 4.0 6.0 167 16177
r 9.25958 0 6 tcp 1040 ------- 0 4.0 6.0 168 16179
r 9.260412 0 6 tcp 1040 ------- 0 4.0 6.0 169 16181
r 9.261244 0 6 tcp 1040 ------- 0 4.0 6.0 170 16183
r 9.262076 0 6 tcp 1040 ------- 0 4.0 6.0 171 16185
r 9.262908 0 6 tcp 1040 ------- 0 4.0 6.0 172 16187
r 9.26374 0 6 tcp 1040 ------- 0 4.0 6.0 173 16189
r 9.264572 0 6 tcp 1040 ------- 0 4.0 6.0 174 16190
r 9.300348 0 6 tcp 1040 ------- 0 4.0 6.0 175 16288
r 9.30118 0 6 tcp 1040 ------- 0 4.0 6.0 176 16290
r 9.302012 0 6 tcp 1040 ------- 0 4.0 6.0 177 16292
r 9.302844 0 6 tcp 1040 ------- 0 4.0 6.0 178 16294
r 9.303676 0 6 tcp 1040 ------- 0 4.0 6.0 179 16296
r 9.304508 0 6 tcp 1040 ------- 0 4.0 6.0 180 16298
r 9.30534 0 6 tcp 1040 ------- 0 4.0 6.0 181 16300
r 9.306172 0 6 tcp 1040 ------- 0 4.0 6.0 182 16302
r 9.307004 0 6 tcp 1040 ------- 0 4.0 6.0 183 16304
r 9.307836 0 6 tcp 1040 ------- 0 4.0 6.0 184 16307
r 9.308668 0 6 tcp 1040 ------- 0 4.0 6.0 185 16308
r 9.3095 0 6 tcp 1040 ------- 0 4.0 6.0 186 16310
r 9.310332 0 6 tcp 1040 ------- 0 4.0 6.0 187 16314
r 9.311164 0 6 tcp 1040 ------- 0 4.0 6.0 188 16319
r 9.311996 0 6 tcp 1040 ------- 0 4.0 6.0 189 16320
r 9.312828 0 6 tcp 1040 ------- 0 4.0 6.0 190 16321
r 9.31366 0 6 tcp 1040 ------- 0 4.0 6.0 191 16322
r 9.314492 0 6 tcp 1040 ------- 0 4.0 6.0 192 16323
r 9.351932 0 6 tcp 1040 ------- 0 4.0 6.0 193 16422
r 9.352764 0 6 tcp 1040 ------- 0 4.0 6.0 194 16423
r 9.353596 0 6 tcp 1040 ------- 0 4.0 6.0 195 16425
r 9.354428 0 6 tcp 1040 ------- 0 4.0 6.0 196 16427
r 9.35526 0 6 tcp 1040 ------- 0 4.0 6.0 197 16429
r 9.356092 0 6 tcp 1040 ------- 0 4.0 6.0 198 16435
r 9.356924 0 6 tcp 1040 ------- 0 4.0 6.0 199 16437
r 9.357756 0 6 tcp 1040 ------- 0 4.0 6.0 200 16439
r 9.358588 0 6 tcp 1040 ------- 0 4.0 6.0 201 16441
r 9.35942 0 6 tcp 1040 ------- 0 4.0 6.0 202 16443
r 9.360252 0 6 tcp 1040 ------- 0 4.0 6.0 203 16445
r 9.361084 0 6 tcp 1040 ------- 0 4.0 6.0 204 16447
r 9.361916 0 6 tcp 1040 ------- 0 4.0 6.0 205 16449
r 9.362748 0 6 tcp 1040 ------- 0 4.0 6.0 206 16451
r 9.36358 0 6 tcp 1040 ------- 0 4.0 6.0 207 16454
r 9.364412 0 6 tcp 1040 ------- 0 4.0 6.0 208 16455
r 9.365244 0 6 tcp 1040 ------- 0 4.0 6.0 209 16457
r 9.366076 0 6 tcp 1040 ------- 0 4.0 6.0 210 16461
r 9.406844 0 6 tcp 1040 ------- 0 4.0 6.0 211 16563
r 9.407676 0 6 tcp 1040 ------- 0 4.0 6.0 212 16564
r 9.408508 0 6 tcp 1040 ------- 0 4.0 6.0 213 16566
r 9.40934 0 6 tcp 1040 ------- 0 4.0 6.0 214 16571
r 9.410172 0 6 tcp 1040 ------- 0 4.0 6.0 215 16572
r 9.411004 0 6 tcp 1040 ------- 0 4.0 6.0 216 16574
r 9.411836 0 6 tcp 1040 ------- 0 4.0 6.0 217 16576
r 9.412668 0 6 tcp 1040 ------- 0 4.0 6.0 218 16578
r 9.4135 0 6 tcp 1040 ------- 0 4.0 6.0 219 16582
r 9.414332 0 6 tcp 1040 ------- 0 4.0 6.0 220 16586
r 9.415164 0 6 tcp 1040 ------- 0 4.0 6.0 221 16588
r 9.415996 0 6 tcp 1040 ------- 0 4.0 6.0 222 16590
r 9.416828 0 6 tcp 1040 ------- 0 4.0 6.0 223 16592
r 9.41766 0 6 tcp 1040 ------- 0 4.0 6.0 224 16594
r 9.418492 0 6 tcp 1040 ------- 0 4.0 6.0 225 16596
r 9.419324 0 6 tcp 1040 ------- 0 4.0 6.0 226 16598
r 9.420156 0 6 tcp 1040 ------- 0 4.0 6.0 227 16600
r 9.420988 0 6 tcp 1040 ------- 0 4.0 6.0 228 16603
r 9.42182 0 6 tcp 1040 ------- 0 4.0 6.0 229 16605
r 9.469244 0 6 tcp 1040 ------- 0 4.0 6.0 230 16723
r 9.470076 0 6 tcp 1040 ------- 0 4.0 6.0 231 16724
r 9.470908 0 6 tcp 1040 ------- 0 4.0 6.0 232 16725
r 9.47174 0 6 tcp 1040 ------- 0 4.0 6.0 233 16727
r 9.472572 0 6 tcp 1040 ------- 0 4.0 6.0 234 16729
r 9.473404 0 6 tcp 1040 ------- 0 4.0 6.0 235 16731
r 9.474236 0 6 tcp 1040 ------- 0 4.0 6.0 236 16733
r 9.475068 0 6 tcp 1040 ------- 0 4.0 6.0 237 16739
r 9.4759 0 6 tcp 1040 ------- 0 4.0 6.0 238 16741
r 9.476732 0 6 tcp 1040 ------- 0 4.0 6.0 239 16743
r 9.477564 0 6 tcp 1040 ------- 0 4.0 6.0 240 16745
r 9.478396 0 6 tcp 1040 ------- 0 4.0 6.0 241 16747
r 9.479228 0 6 tcp 1040 ------- 0 4.0 6.0 242 16749
r 9.48006 0 6 tcp 1040 ------- 0 4.0 6.0 243 16751
r 9.480892 0 6 tcp 1040 ------- 0 4.0 6.0 244 16753
r 9.481724 0 6 tcp 1040 ------- 0 4.0 6.0 245 16755
r 9.482556 0 6 tcp 1040 ------- 0 4.0 6.0 246 16758
r 9.483388 0 6 tcp 1040 ------- 0 4.0 6.0 247 16759
r 9.48422 0 6 tcp 1040 ------- 0 4.0 6.0 248 16761
r 9.485052 0 6 tcp 1040 ------- 0 4.0 6.0 249 16765
r 9.53414 0 6 tcp 1040 ------- 0 4.0 6.0 250 16897
r 9.534972 0 6 tcp 1040 ------- 0 4.0 6.0 251 16899
r 9.535804 0 6 tcp 1040 ------- 0 4.0 6.0 252 16901
r 9.536636 0 6 tcp 1040 ------- 0 4.0 6.0 253 16903
r 9.537468 0 6 tcp 1040 ------- 0 4.0 6.0 254 16906
r 9.5383 0 6 tcp 1040 ------- 0 4.0 6.0 255 16907
r 9.539132 0 6 tcp 1040 ------- 0 4.0 6.0 256 16909
r 9.539964 0 6 tcp 1040 ------- 0 4.0 6.0 257 16911
r 9.540796 0 6 tcp 1040 ------- 0 4.0 6.0 258 16919
r 9.541628 0 6 tcp 1040 ------- 0 4.0 6.0 259 16920
r 9.54246 0 6 tcp 1040 ------- 0 4.0 6.0 260 16921
r 9.543292 0 6 tcp 1040 ------- 0 4.0 6.0 261 16922
r 9.544124 0 6 tcp 1040 ------- 0 4.0 6.0 262 16923
r 9.544956 0 6 tcp 1040 ------- 0 4.0 6.0 263 16925
r 9.545788 0 6 tcp 1040 ------- 0 4.0 6.0 264 16927
r 9.54662 0 6 tcp 1040 ------- 0 4.0 6.0 265 16929
r 9.547452 0 6 tcp 1040 ------- 0 4.0 6.0 266 16931
r 9.548284 0 6 tcp 1040 ------- 0 4.0 6.0 267 16933
r 9.549116 0 6 tcp 1040 ------- 0 4.0 6.0 268 16935
r 9.549948 0 6 tcp 1040 ------- 0 4.0 6.0 269 16937
r 9.589052 0 6 tcp 1040 ------- 0 4.0 6.0 270 17057
r 9.589884 0 6 tcp 1040 ------- 0 4.0 6.0 271 17059
r 9.590716 0 6 tcp 1040 ------- 0 4.0 6.0 272 17061
r 9.591548 0 6 tcp 1040 ------- 0 4.0 6.0 273 17063
r 9.59238 0 6 tcp 1040 ------- 0 4.0 6.0 274 17065
r 9.593212 0 6 tcp 1040 ------- 0 4.0 6.0 275 17067
r 9.594044 0 6 tcp 1040 ------- 0 4.0 6.0 276 17069
r 9.594876 0 6 tcp 1040 ------- 0 4.0 6.0 277 17071
r 9.595708 0 6 tcp 1040 ------- 0 4.0 6.0 278 17076
r 9.59654 0 6 tcp 1040 ------- 0 4.0 6.0 279 17077
r 9.597372 0 6 tcp 1040 ------- 0 4.0 6.0 280 17079
r 9.598204 0 6 tcp 1040 ------- 0 4.0 6.0 281 17081
r 9.599036 0 6 tcp 1040 ------- 0 4.0 6.0 282 17083
r 9.599868 0 6 tcp 1040 ------- 0 4.0 6.0 283 17085
r 9.6007 0 6 tcp 1040 ------- 0 4.0 6.0 284 17089
r 9.601532 0 6 tcp 1040 ------- 0 4.0 6.0 285 17091
r 9.602364 0 6 tcp 1040 ------- 0 4.0 6.0 286 17093
r 9.603196 0 6 tcp 1040 ------- 0 4.0 6.0 287 17095
r 9.604028 0 6 tcp 1040 ------- 0 4.0 6.0 288 17097
r 9.60486 0 6 tcp 1040 ------- 0 4.0 6.0 289 17099
r 9.640636 0 6 tcp 1040 ------- 0 4.0 6.0 290 17197
r 9.641468 0 6 tcp 1040 ------- 0 4.0 6.0 291 17199
r 9.6423 0 6 tcp 1040 ------- 0 4.0 6.0 292 17201
r 9.643132 0 6 tcp 1040 ------- 0 4.0 6.0 293 17203
r 9.643964 0 6 tcp 1040 ------- 0 4.0 6.0 294 17205
r 9.644796 0 6 tcp 1040 ------- 0 4.0 6.0 295 17207
r 9.645628 0 6 tcp 1040 ------- 0 4.0 6.0 296 17209
r 9.64646 0 6 tcp 1040 ------- 0 4.0 6.0 297 17214
r 9.647292 0 6 tcp 1040 ------- 0 4.0 6.0 298 17215
r 9.648124 0 6 tcp 1040 ------- 0 4.0 6.0 299 17217
r 9.648956 0 6 tcp 1040 ------- 0 4.0 6.0 300 17219
r 9.649788 0 6 tcp 1040 ------- 0 4.0 6.0 301 17221
r 9.65062 0 6 tcp 1040 ------- 0 4.0 6.0 302 17225
r 9.651452 0 6 tcp 1040 ------- 0 4.0 6.0 303 17227
r 9.652284 0 6 tcp 1040 ------- 0 4.0 6.0 304 17229
r 9.653116 0 6 tcp 1040 ------- 0 4.0 6.0 305 17231
r 9.653948 0 6 tcp 1040 ------- 0 4.0 6.0 306 17233
r 9.65478 0 6 tcp 1040 ------- 0 4.0 6.0 307 17235
r 9.655612 0 6 tcp 1040 ------- 0 4.0 6.0 308 17237
r 9.656444 0 6 tcp 1040 ------- 0 4.0 6.0 309 17239
r 9.693884 0 6 tcp 1040 ------- 0 4.0 6.0 310 17335
r 9.694716 0 6 tcp 1040 ------- 0 4.0 6.0 311 17337
r 9.695548 0 6 tcp 1040 ------- 0 4.0 6.0 312 17339
r 9.69638 0 6 tcp 1040 ------- 0 4.0 6.0 313 17341
r 9.697212 0 6 tcp 1040 ------- 0 4.0 6.0 314 17343
r 9.698044 0 6 tcp 1040 ------- 0 4.0 6.0 315 17345
r 9.698876 0 6 tcp 1040 ------- 0 4.0 6.0 316 17347
r 9.699708 0 6 tcp 1040 ------- 0 4.0 6.0 317 17349
r 9.70054 0 6 tcp 1040 ------- 0 4.0 6.0 318 17351
r 9.701372 0 6 tcp 1040 ------- 0 4.0 6.0 319 17356
r 9.702204 0 6 tcp 1040 ------- 0 4.0 6.0 320 17357
r 9.703036 0 6 tcp 1040 ------- 0 4.0 6.0 321 17359
r 9.703868 0 6 tcp 1040 ------- 0 4.0 6.0 322 17361
r 9.7047 0 6 tcp 1040 ------- 0 4.0 6.0 323 17363
r 9.705532 0 6 tcp 1040 ------- 0 4.0 6.0 324 17367
r 9.706364 0 6 tcp 1040 ------- 0 4.0 6.0 325 17369
r 9.707196 0 6 tcp 1040 ------- 0 4.0 6.0 326 17371
r 9.708028 0 6 tcp 1040 ------- 0 4.0 6.0 327 17373
r 9.70886 0 6 tcp 1040 ------- 0 4.0 6.0 328 17375
r 9.709692 0 6 tcp 1040 ------- 0 4.0 6.0 329 17377
r 9.749628 0 6 tcp 1040 ------- 0 4.0 6.0 330 17478
r 9.75046 0 6 tcp 1040 ------- 0 4.0 6.0 331 17480
r 9.751292 0 6 tcp 1040 ------- 0 4.0 6.0 332 17482
r 9.752124 0 6 tcp 1040 ------- 0 4.0 6.0 333 17484
r 9.752956 0 6 tcp 1040 ------- 0 4.0 6.0 334 17486
r 9.753788 0 6 tcp 1040 ------- 0 4.0 6.0 335 17488
r 9.75462 0 6 tcp 1040 ------- 0 4.0 6.0 336 17490
r 9.755452 0 6 tcp 1040 ------- 0 4.0 6.0 337 17492
r 9.756284 0 6 tcp 1040 ------- 0 4.0 6.0 338 17494
r 9.757116 0 6 tcp 1040 ------- 0 4.0 6.0 339 17499
r 9.757948 0 6 tcp 1040 ------- 0 4.0 6.0 340 17501
r 9.75878 0 6 tcp 1040 ------- 0 4.0 6.0 341 17502
r 9.759612 0 6 tcp 1040 ------- 0 4.0 6.0 342 17504
r 9.760444 0 6 tcp 1040 ------- 0 4.0 6.0 343 17506
r 9.761276 0 6 tcp 1040 ------- 0 4.0 6.0 344 17508
r 9.762108 0 6 tcp 1040 ------- 0 4.0 6.0 345 17512
r 9.76294 0 6 tcp 1040 ------- 0 4.0 6.0 346 17514
r 9.763772 0 6 tcp 1040 ------- 0 4.0 6.0 347 17516
r 9.764604 0 6 tcp 1040 ------- 0 4.0 6.0 348 17518
r 9.765436 0 6 tcp 1040 ------- 0 4.0 6.0 349 17520
r 9.807868 0 6 tcp 1040 ------- 0 4.0 6.0 350 17627
r 9.8087 0 6 tcp 1040 ------- 0 4.0 6.0 351 17629
r 9.809532 0 6 tcp 1040 ------- 0 4.0 6.0 352 17631
r 9.810364 0 6 tcp 1040 ------- 0 4.0 6.0 353 17633
r 9.811196 0 6 tcp 1040 ------- 0 4.0 6.0 354 17635
r 9.812028 0 6 tcp 1040 ------- 0 4.0 6.0 355 17637
r 9.81286 0 6 tcp 1040 ------- 0 4.0 6.0 356 17639
r 9.813692 0 6 tcp 1040 ------- 0 4.0 6.0 357 17644
r 9.814524 0 6 tcp 1040 ------- 0 4.0 6.0 358 17645
r 9.815356 0 6 tcp 1040 ------- 0 4.0 6.0 359 17647
r 9.816188 0 6 tcp 1040 ------- 0 4.0 6.0 360 17649
r 9.81702 0 6 tcp 1040 ------- 0 4.0 6.0 361 17651
r 9.817852 0 6 tcp 1040 ------- 0 4.0 6.0 362 17655
r 9.818684 0 6 tcp 1040 ------- 0 4.0 6.0 363 17657
r 9.819516 0 6 tcp 1040 ------- 0 4.0 6.0 364 17659
r 9.820348 0 6 tcp 1040 ------- 0 4.0 6.0 365 17661
r 9.82118 0 6 tcp 1040 ------- 0 4.0 6.0 366 17663
r 9.822012 0 6 tcp 1040 ------- 0 4.0 6.0 367 17665
r 9.822844 0 6 tcp 1040 ------- 0 4.0 6.0 368 17667
r 9.823676 0 6 tcp 1040 ------- 0 4.0 6.0 369 17669
r 9.86694 0 6 tcp 1040 ------- 0 4.0 6.0 370 17780
r 9.867772 0 6 tcp 1040 ------- 0 4.0 6.0 371 17785
r 9.868604 0 6 tcp 1040 ------- 0 4.0 6.0 372 17786
r 9.869436 0 6 tcp 1040 ------- 0 4.0 6.0 373 17788
r 9.870268 0 6 tcp 1040 ------- 0 4.0 6.0 374 17790
r 9.8711 0 6 tcp 1040 ------- 0 4.0 6.0 375 17794
r 9.871932 0 6 tcp 1040 ------- 0 4.0 6.0 376 17796
r 9.872764 0 6 tcp 1040 ------- 0 4.0 6.0 377 17800
r 9.873596 0 6 tcp 1040 ------- 0 4.0 6.0 378 17802
r 9.874428 0 6 tcp 1040 ------- 0 4.0 6.0 379 17804
r 9.87526 0 6 tcp 1040 ------- 0 4.0 6.0 380 17806
r 9.876092 0 6 tcp 1040 ------- 0 4.0 6.0 381 17808
r 9.876924 0 6 tcp 1040 ------- 0 4.0 6.0 382 17810
r 9.877756 0 6 tcp 1040 ------- 0 4.0 6.0 383 17812
r 9.878588 0 6 tcp 1040 ------- 0 4.0 6.0 384 17814
r 9.87942 0 6 tcp 1040 ------- 0 4.0 6.0 385 17816
r 9.880252 0 6 tcp 1040 ------- 0 4.0 6.0 386 17819
r 9.881084 0 6 tcp 1040 ------- 0 4.0 6.0 387 17820
r 9.881916 0 6 tcp 1040 ------- 0 4.0 6.0 388 17822
r 9.882748 0 6 tcp 1040 ------- 0 4.0 6.0 389 17826
r 9.926844 0 6 tcp 1040 ------- 0 4.0 6.0 390 17945
r 9.927676 0 6 tcp 1040 ------- 0 4.0 6.0 391 17947
r 9.928508 0 6 tcp 1040 ------- 0 4.0 6.0 392 17949
r 9.92934 0 6 tcp 1040 ------- 0 4.0 6.0 393 17951
r 9.930172 0 6 tcp 1040 ------- 0 4.0 6.0 394 17953
r 9.931004 0 6 tcp 1040 ------- 0 4.0 6.0 395 17955
r 9.931836 0 6 tcp 1040 ------- 0 4.0 6.0 396 17957
r 9.932668 0 6 tcp 1040 ------- 0 4.0 6.0 397 17959
r 9.9335 0 6 tcp 1040 ------- 0 4.0 6.0 398 17961
r 9.934332 0 6 tcp 1040 ------- 0 4.0 6.0 399 17964
r 9.935164 0 6 tcp 1040 ------- 0 4.0 6.0 400 17965
r 9.935996 0 6 tcp 1040 ------- 0 4.0 6.0 401 17967
r 9.936828 0 6 tcp 1040 ------- 0 4.0 6.0 402 17969
r 9.93766 0 6 tcp 1040 ------- 0 4.0 6.0 403 17976
r 9.938492 0 6 tcp 1040 ------- 0 4.0 6.0 404 17977
r 9.939324 0 6 tcp 1040 ------- 0 4.0 6.0 405 17978
r 9.940156 0 6 tcp 1040 ------- 0 4.0 6.0 406 17979
r 9.940988 0 6 tcp 1040 ------- 0 4.0 6.0 407 17981
r 9.94182 0 6 tcp 1040 ------- 0 4.0 6.0 408 17983
r 9.942652 0 6 tcp 1040 ------- 0 4.0 6.0 409 17985
r 9.98758 0 6 tcp 1040 ------- 0 4.0 6.0 410 18106
r 9.988412 0 6 tcp 1040 ------- 0 4.0 6.0 411 18109
r 9.989244 0 6 tcp 1040 ------- 0 4.0 6.0 412 18111
r 9.990076 0 6 tcp 1040 ------- 0 4.0 6.0 413 18112
r 9.990908 0 6 tcp 1040 ------- 0 4.0 6.0 414 18114
r 9.99174 0 6 tcp 1040 ------- 0 4.0 6.0 415 18119
r 9.992572 0 6 tcp 1040 ------- 0 4.0 6.0 416 18122
r 9.993404 0 6 tcp 1040 ------- 0 4.0 6.0 417 18123
r 9.994236 0 6 tcp 1040 ------- 0 4.0 6.0 418 18124
r 9.995068 0 6 tcp 1040 ------- 0 4.0 6.0 419 18126
r 9.9959 0 6 tcp 1040 ------- 0 4.0 6.0 420 18128
r 9.996732 0 6 tcp 1040 ------- 0 4.0 6.0 421 18130
r 9.997564 0 6 tcp 1040 ------- 0 4.0 6.0 422 18132
r 9.998396 0 6 tcp 1040 ------- 0 4.0 6.0 423 18134
r 9.999228 0 6 tcp 1040 ------- 0 4.0 6.0 424 18136
