r 0.272294 0 9 tcp 40 ------- 0 4.3 9.0 0 0
r 0.296423 0 9 tcp 1040 ------- 0 4.3 9.0 1 2
r 0.297255 0 9 tcp 1040 ------- 0 4.3 9.0 2 3
r 0.320551 0 9 tcp 1040 ------- 0 4.3 9.0 3 6
r 0.321383 0 9 tcp 1040 ------- 0 4.3 9.0 4 7
r 0.322215 0 9 tcp 1040 ------- 0 4.3 9.0 5 8
r 0.323047 0 9 tcp 1040 ------- 0 4.3 9.0 6 9
r 0.34468 0 9 tcp 1040 ------- 0 4.3 9.0 7 14
r 0.345512 0 9 tcp 1040 ------- 0 4.3 9.0 8 15
r 0.346344 0 9 tcp 1040 ------- 0 4.3 9.0 9 16
r 0.347176 0 9 tcp 1040 ------- 0 4.3 9.0 10 17
r 0.348008 0 9 tcp 1040 ------- 0 4.3 9.0 11 18
r 0.34884 0 9 tcp 1040 ------- 0 4.3 9.0 12 19
r 0.349672 0 9 tcp 1040 ------- 0 4.3 9.0 13 20
r 0.350504 0 9 tcp 1040 ------- 0 4.3 9.0 14 21
r 0.368809 0 9 tcp 1040 ------- 0 4.3 9.0 15 30
r 0.369641 0 9 tcp 1040 ------- 0 4.3 9.0 16 31
r 0.370473 0 9 tcp 1040 ------- 0 4.3 9.0 17 32
r 0.371305 0 9 tcp 1040 ------- 0 4.3 9.0 18 33
r 0.372137 0 9 tcp 1040 ------- 0 4.3 9.0 19 34
r 0.372969 0 9 tcp 1040 ------- 0 4.3 9.0 20 35
r 0.373801 0 9 tcp 1040 ------- 0 4.3 9.0 21 36
r 0.374633 0 9 tcp 1040 ------- 0 4.3 9.0 22 37
r 0.375465 0 9 tcp 1040 ------- 0 4.3 9.0 23 38
r 0.376297 0 9 tcp 1040 ------- 0 4.3 9.0 24 39
r 0.377129 0 9 tcp 1040 ------- 0 4.3 9.0 25 40
r 0.377961 0 9 tcp 1040 ------- 0 4.3 9.0 26 41
r 0.378793 0 9 tcp 1040 ------- 0 4.3 9.0 27 42
r 0.379625 0 9 tcp 1040 ------- 0 4.3 9.0 28 43
r 0.380457 0 9 tcp 1040 ------- 0 4.3 9.0 29 44
r 0.381289 0 9 tcp 1040 ------- 0 4.3 9.0 30 45
r 0.392938 0 9 tcp 1040 ------- 0 4.3 9.0 31 60
r 0.39377 0 9 tcp 1040 ------- 0 4.3 9.0 32 61
r 0.394602 0 9 tcp 1040 ------- 0 4.3 9.0 33 63
r 0.395434 0 9 tcp 1040 ------- 0 4.3 9.0 34 64
r 0.396266 0 9 tcp 1040 ------- 0 4.3 9.0 35 66
r 0.397098 0 9 tcp 1040 ------- 0 4.3 9.0 36 67
r 0.39793 0 9 tcp 1040 ------- 0 4.3 9.0 37 68
r 0.398762 0 9 tcp 1040 ------- 0 4.3 9.0 38 69
r 0.399594 0 9 tcp 1040 ------- 0 4.3 9.0 39 70
r 0.400426 0 9 tcp 1040 ------- 0 4.3 9.0 40 71
r 0.401258 0 9 tcp 1040 ------- 0 4.3 9.0 41 72
r 0.40209 0 9 tcp 1040 ------- 0 4.3 9.0 42 73
r 0.402922 0 9 tcp 1040 ------- 0 4.3 9.0 43 74
r 0.403754 0 9 tcp 1040 ------- 0 4.3 9.0 44 75
r 0.404586 0 9 tcp 1040 ------- 0 4.3 9.0 45 76
r 0.405418 0 9 tcp 1040 ------- 0 4.3 9.0 46 77
r 0.40625 0 9 tcp 1040 ------- 0 4.3 9.0 47 78
r 0.407082 0 9 tcp 1040 ------- 0 4.3 9.0 48 79
r 0.407914 0 9 tcp 1040 ------- 0 4.3 9.0 49 80
r 0.408746 0 9 tcp 1040 ------- 0 4.3 9.0 50 81
r 0.417067 0 9 tcp 1040 ------- 0 4.3 9.0 51 96
r 0.417899 0 9 tcp 1040 ------- 0 4.3 9.0 52 98
r 0.418731 0 9 tcp 1040 ------- 0 4.3 9.0 53 100
r 0.419563 0 9 tcp 1040 ------- 0 4.3 9.0 54 102
r 0.420395 0 9 tcp 1040 ------- 0 4.3 9.0 55 104
r 0.421227 0 9 tcp 1040 ------- 0 4.3 9.0 56 106
r 0.422059 0 9 tcp 1040 ------- 0 4.3 9.0 57 108
r 0.422891 0 9 tcp 1040 ------- 0 4.3 9.0 58 109
r 0.423723 0 9 tcp 1040 ------- 0 4.3 9.0 59 110
r 0.424555 0 9 tcp 1040 ------- 0 4.3 9.0 60 111
r 0.425387 0 9 tcp 1040 ------- 0 4.3 9.0 61 112
r 0.426219 0 9 tcp 1040 ------- 0 4.3 9.0 62 113
r 0.427051 0 9 tcp 1040 ------- 0 4.3 9.0 63 114
r 0.427883 0 9 tcp 1040 ------- 0 4.3 9.0 64 115
r 0.428715 0 9 tcp 1040 ------- 0 4.3 9.0 65 116
r 0.429547 0 9 tcp 1040 ------- 0 4.3 9.0 66 117
r 0.430379 0 9 tcp 1040 ------- 0 4.3 9.0 67 119
r 0.431211 0 9 tcp 1040 ------- 0 4.3 9.0 68 121
r 0.432043 0 9 tcp 1040 ------- 0 4.3 9.0 69 123
r 0.432875 0 9 tcp 1040 ------- 0 4.3 9.0 70 125
r 0.441195 0 9 tcp 1040 ------- 0 4.3 9.0 71 136
r 0.442027 0 9 tcp 1040 ------- 0 4.3 9.0 72 138
r 0.442859 0 9 tcp 1040 ------- 0 4.3 9.0 73 140
r 0.443691 0 9 tcp 1040 ------- 0 4.3 9.0 74 142
r 0.444523 0 9 tcp 1040 ------- 0 4.3 9.0 75 144
r 0.445355 0 9 tcp 1040 ------- 0 4.3 9.0 76 146
r 0.446187 0 9 tcp 1040 ------- 0 4.3 9.0 77 148
r 0.447019 0 9 tcp 1040 ------- 0 4.3 9.0 78 149
r 0.447851 0 9 tcp 1040 ------- 0 4.3 9.0 79 150
r 0.448683 0 9 tcp 1040 ------- 0 4.3 9.0 80 151
r 0.449515 0 9 tcp 1040 ------- 0 4.3 9.0 81 152
r 0.450347 0 9 tcp 1040 ------- 0 4.3 9.0 82 153
r 0.451179 0 9 tcp 1040 ------- 0 4.3 9.0 83 154
r 0.452011 0 9 tcp 1040 ------- 0 4.3 9.0 84 155
r 0.452843 0 9 tcp 1040 ------- 0 4.3 9.0 85 156
r 0.453675 0 9 tcp 1040 ------- 0 4.3 9.0 86 157
r 0.454507 0 9 tcp 1040 ------- 0 4.3 9.0 87 159
r 0.455339 0 9 tcp 1040 ------- 0 4.3 9.0 88 161
r 0.456171 0 9 tcp 1040 ------- 0 4.3 9.0 89 163
r 0.457003 0 9 tcp 1040 ------- 0 4.3 9.0 90 165
r 0.465324 0 9 tcp 1040 ------- 0 4.3 9.0 91 176
r 0.466156 0 9 tcp 1040 ------- 0 4.3 9.0 92 178
r 0.466988 0 9 tcp 1040 ------- 0 4.3 9.0 93 180
r 0.46782 0 9 tcp 1040 ------- 0 4.3 9.0 94 182
r 0.468652 0 9 tcp 1040 ------- 0 4.3 9.0 95 184
r 0.469484 0 9 tcp 1040 ------- 0 4.3 9.0 96 186
r 0.470316 0 9 tcp 1040 ------- 0 4.3 9.0 97 188
r 0.471148 0 9 tcp 1040 ------- 0 4.3 9.0 98 189
r 0.47198 0 9 tcp 1040 ------- 0 4.3 9.0 99 190
r 0.472812 0 9 tcp 1040 ------- 0 4.3 9.0 100 191
r 0.473644 0 9 tcp 1040 ------- 0 4.3 9.0 101 192
r 0.474476 0 9 tcp 1040 ------- 0 4.3 9.0 102 193
r 0.475308 0 9 tcp 1040 ------- 0 4.3 9.0 103 194
r 0.47614 0 9 tcp 1040 ------- 0 4.3 9.0 104 195
r 0.476972 0 9 tcp 1040 ------- 0 4.3 9.0 105 196
r 0.477804 0 9 tcp 1040 ------- 0 4.3 9.0 106 197
r 0.478636 0 9 tcp 1040 ------- 0 4.3 9.0 107 199
r 0.479468 0 9 tcp 1040 ------- 0 4.3 9.0 108 201
r 0.4803 0 9 tcp 1040 ------- 0 4.3 9.0 109 203
r 0.481132 0 9 tcp 1040 ------- 0 4.3 9.0 110 205
r 0.489453 0 9 tcp 1040 ------- 0 4.3 9.0 111 216
r 0.490285 0 9 tcp 1040 ------- 0 4.3 9.0 112 218
r 0.491117 0 9 tcp 1040 ------- 0 4.3 9.0 113 220
r 0.491949 0 9 tcp 1040 ------- 0 4.3 9.0 114 222
r 0.492781 0 9 tcp 1040 ------- 0 4.3 9.0 115 224
r 0.493613 0 9 tcp 1040 ------- 0 4.3 9.0 116 226
r 0.494445 0 9 tcp 1040 ------- 0 4.3 9.0 117 228
r 0.495277 0 9 tcp 1040 ------- 0 4.3 9.0 118 229
r 0.496109 0 9 tcp 1040 ------- 0 4.3 9.0 119 230
r 0.496941 0 9 tcp 1040 ------- 0 4.3 9.0 120 231
r 0.497773 0 9 tcp 1040 ------- 0 4.3 9.0 121 232
r 0.498605 0 9 tcp 1040 ------- 0 4.3 9.0 122 233
r 0.499437 0 9 tcp 1040 ------- 0 4.3 9.0 123 234
r 0.500269 0 9 tcp 1040 ------- 0 4.3 9.0 124 235
r 0.501101 0 9 tcp 1040 ------- 0 4.3 9.0 125 236
r 0.501933 0 9 tcp 1040 ------- 0 4.3 9.0 126 237
r 0.502765 0 9 tcp 1040 ------- 0 4.3 9.0 127 239
r 0.503597 0 9 tcp 1040 ------- 0 4.3 9.0 128 241
r 0.504429 0 9 tcp 1040 ------- 0 4.3 9.0 129 243
r 0.505261 0 9 tcp 1040 ------- 0 4.3 9.0 130 245
r 0.513582 0 9 tcp 1040 ------- 0 4.3 9.0 131 256
r 0.514414 0 9 tcp 1040 ------- 0 4.3 9.0 132 258
r 0.515246 0 9 tcp 1040 ------- 0 4.3 9.0 133 260
r 0.516078 0 9 tcp 1040 ------- 0 4.3 9.0 134 262
r 0.51691 0 9 tcp 1040 ------- 0 4.3 9.0 135 264
r 0.517742 0 9 tcp 1040 ------- 0 4.3 9.0 136 266
r 0.518574 0 9 tcp 1040 ------- 0 4.3 9.0 137 268
r 0.519406 0 9 tcp 1040 ------- 0 4.3 9.0 138 269
r 0.520238 0 9 tcp 1040 ------- 0 4.3 9.0 139 270
r 0.52107 0 9 tcp 1040 ------- 0 4.3 9.0 140 271
r 0.521902 0 9 tcp 1040 ------- 0 4.3 9.0 141 272
r 0.522734 0 9 tcp 1040 ------- 0 4.3 9.0 142 273
r 0.523566 0 9 tcp 1040 ------- 0 4.3 9.0 143 274
r 0.524398 0 9 tcp 1040 ------- 0 4.3 9.0 144 275
r 0.52523 0 9 tcp 1040 ------- 0 4.3 9.0 145 276
r 0.526062 0 9 tcp 1040 ------- 0 4.3 9.0 146 277
r 0.526894 0 9 tcp 1040 ------- 0 4.3 9.0 147 279
r 0.527726 0 9 tcp 1040 ------- 0 4.3 9.0 148 281
r 0.528558 0 9 tcp 1040 ------- 0 4.3 9.0 149 283
r 0.52939 0 9 tcp 1040 ------- 0 4.3 9.0 150 285
r 0.537711 0 9 tcp 1040 ------- 0 4.3 9.0 151 296
r 0.538543 0 9 tcp 1040 ------- 0 4.3 9.0 152 298
r 0.539375 0 9 tcp 1040 ------- 0 4.3 9.0 153 300
r 0.540207 0 9 tcp 1040 ------- 0 4.3 9.0 154 302
r 0.541039 0 9 tcp 1040 ------- 0 4.3 9.0 155 304
r 0.541871 0 9 tcp 1040 ------- 0 4.3 9.0 156 306
r 0.542703 0 9 tcp 1040 ------- 0 4.3 9.0 157 308
r 0.543535 0 9 tcp 1040 ------- 0 4.3 9.0 158 309
r 0.544367 0 9 tcp 1040 ------- 0 4.3 9.0 159 310
r 0.545199 0 9 tcp 1040 ------- 0 4.3 9.0 160 311
r 0.546031 0 9 tcp 1040 ------- 0 4.3 9.0 161 312
r 0.546863 0 9 tcp 1040 ------- 0 4.3 9.0 162 313
r 0.547695 0 9 tcp 1040 ------- 0 4.3 9.0 163 314
r 0.548527 0 9 tcp 1040 ------- 0 4.3 9.0 164 315
r 0.549359 0 9 tcp 1040 ------- 0 4.3 9.0 165 316
r 0.550191 0 9 tcp 1040 ------- 0 4.3 9.0 166 317
r 0.551023 0 9 tcp 1040 ------- 0 4.3 9.0 167 319
r 0.551855 0 9 tcp 1040 ------- 0 4.3 9.0 168 321
r 0.552687 0 9 tcp 1040 ------- 0 4.3 9.0 169 323
r 0.553519 0 9 tcp 1040 ------- 0 4.3 9.0 170 325
r 0.561839 0 9 tcp 1040 ------- 0 4.3 9.0 171 336
r 0.562671 0 9 tcp 1040 ------- 0 4.3 9.0 172 338
r 0.563503 0 9 tcp 1040 ------- 0 4.3 9.0 173 340
r 0.564335 0 9 tcp 1040 ------- 0 4.3 9.0 174 342
r 0.565167 0 9 tcp 1040 ------- 0 4.3 9.0 175 344
r 0.565999 0 9 tcp 1040 ------- 0 4.3 9.0 176 346
r 0.566831 0 9 tcp 1040 ------- 0 4.3 9.0 177 348
r 0.567663 0 9 tcp 1040 ------- 0 4.3 9.0 178 349
r 0.568495 0 9 tcp 1040 ------- 0 4.3 9.0 179 350
r 0.569327 0 9 tcp 1040 ------- 0 4.3 9.0 180 351
r 0.570159 0 9 tcp 1040 ------- 0 4.3 9.0 181 352
r 0.570991 0 9 tcp 1040 ------- 0 4.3 9.0 182 353
r 0.571823 0 9 tcp 1040 ------- 0 4.3 9.0 183 354
r 0.572655 0 9 tcp 1040 ------- 0 4.3 9.0 184 355
r 0.573487 0 9 tcp 1040 ------- 0 4.3 9.0 185 356
r 0.574319 0 9 tcp 1040 ------- 0 4.3 9.0 186 357
r 0.575151 0 9 tcp 1040 ------- 0 4.3 9.0 187 359
r 0.575983 0 9 tcp 1040 ------- 0 4.3 9.0 188 361
r 0.576815 0 9 tcp 1040 ------- 0 4.3 9.0 189 363
r 0.577647 0 9 tcp 1040 ------- 0 4.3 9.0 190 365
r 0.585968 0 9 tcp 1040 ------- 0 4.3 9.0 191 376
r 0.5868 0 9 tcp 1040 ------- 0 4.3 9.0 192 378
r 0.587632 0 9 tcp 1040 ------- 0 4.3 9.0 193 380
r 0.588464 0 9 tcp 1040 ------- 0 4.3 9.0 194 382
r 0.589296 0 9 tcp 1040 ------- 0 4.3 9.0 195 384
r 0.590128 0 9 tcp 1040 ------- 0 4.3 9.0 196 386
r 0.59096 0 9 tcp 1040 ------- 0 4.3 9.0 197 388
r 0.591792 0 9 tcp 1040 ------- 0 4.3 9.0 198 389
r 0.592624 0 9 tcp 1040 ------- 0 4.3 9.0 199 390
r 0.593456 0 9 tcp 1040 ------- 0 4.3 9.0 200 391
r 0.594288 0 9 tcp 1040 ------- 0 4.3 9.0 201 392
r 0.59512 0 9 tcp 1040 ------- 0 4.3 9.0 202 393
r 0.595952 0 9 tcp 1040 ------- 0 4.3 9.0 203 394
r 0.596784 0 9 tcp 1040 ------- 0 4.3 9.0 204 395
r 0.597616 0 9 tcp 1040 ------- 0 4.3 9.0 205 396
r 0.598448 0 9 tcp 1040 ------- 0 4.3 9.0 206 397
r 0.59928 0 9 tcp 1040 ------- 0 4.3 9.0 207 399
r 0.600112 0 9 tcp 1040 ------- 0 4.3 9.0 208 401
r 0.600944 0 9 tcp 1040 ------- 0 4.3 9.0 209 403
r 0.601776 0 9 tcp 1040 ------- 0 4.3 9.0 210 405
r 0.610097 0 9 tcp 1040 ------- 0 4.3 9.0 211 416
r 0.610929 0 9 tcp 1040 ------- 0 4.3 9.0 212 418
r 0.611761 0 9 tcp 1040 ------- 0 4.3 9.0 213 420
r 0.612593 0 9 tcp 1040 ------- 0 4.3 9.0 214 422
r 0.613425 0 9 tcp 1040 ------- 0 4.3 9.0 215 424
r 0.614257 0 9 tcp 1040 ------- 0 4.3 9.0 216 426
r 0.615089 0 9 tcp 1040 ------- 0 4.3 9.0 217 428
r 0.615921 0 9 tcp 1040 ------- 0 4.3 9.0 218 429
r 0.616753 0 9 tcp 1040 ------- 0 4.3 9.0 219 430
r 0.617585 0 9 tcp 1040 ------- 0 4.3 9.0 220 431
r 0.618417 0 9 tcp 1040 ------- 0 4.3 9.0 221 432
r 0.619249 0 9 tcp 1040 ------- 0 4.3 9.0 222 433
r 0.620081 0 9 tcp 1040 ------- 0 4.3 9.0 223 434
r 0.620913 0 9 tcp 1040 ------- 0 4.3 9.0 224 435
r 0.621745 0 9 tcp 1040 ------- 0 4.3 9.0 225 436
r 0.622577 0 9 tcp 1040 ------- 0 4.3 9.0 226 437
r 0.623409 0 9 tcp 1040 ------- 0 4.3 9.0 227 439
r 0.624241 0 9 tcp 1040 ------- 0 4.3 9.0 228 441
r 0.625073 0 9 tcp 1040 ------- 0 4.3 9.0 229 443
r 0.625905 0 9 tcp 1040 ------- 0 4.3 9.0 230 445
r 0.634226 0 9 tcp 1040 ------- 0 4.3 9.0 231 456
r 0.635058 0 9 tcp 1040 ------- 0 4.3 9.0 232 458
r 0.63589 0 9 tcp 1040 ------- 0 4.3 9.0 233 460
r 0.636722 0 9 tcp 1040 ------- 0 4.3 9.0 234 462
r 0.637554 0 9 tcp 1040 ------- 0 4.3 9.0 235 464
r 0.638386 0 9 tcp 1040 ------- 0 4.3 9.0 236 466
r 0.639218 0 9 tcp 1040 ------- 0 4.3 9.0 237 468
r 0.64005 0 9 tcp 1040 ------- 0 4.3 9.0 238 469
r 0.640882 0 9 tcp 1040 ------- 0 4.3 9.0 239 470
r 0.641714 0 9 tcp 1040 ------- 0 4.3 9.0 240 471
r 0.642546 0 9 tcp 1040 ------- 0 4.3 9.0 241 472
r 0.643378 0 9 tcp 1040 ------- 0 4.3 9.0 242 473
r 0.64421 0 9 tcp 1040 ------- 0 4.3 9.0 243 474
r 0.645042 0 9 tcp 1040 ------- 0 4.3 9.0 244 475
r 0.645874 0 9 tcp 1040 ------- 0 4.3 9.0 245 476
r 0.646706 0 9 tcp 1040 ------- 0 4.3 9.0 246 477
r 0.647538 0 9 tcp 1040 ------- 0 4.3 9.0 247 479
r 0.64837 0 9 tcp 1040 ------- 0 4.3 9.0 248 481
r 0.649202 0 9 tcp 1040 ------- 0 4.3 9.0 249 483
r 0.650034 0 9 tcp 1040 ------- 0 4.3 9.0 250 485
r 0.658355 0 9 tcp 1040 ------- 0 4.3 9.0 251 496
r 0.659187 0 9 tcp 1040 ------- 0 4.3 9.0 252 498
r 0.660019 0 9 tcp 1040 ------- 0 4.3 9.0 253 500
r 0.660851 0 9 tcp 1040 ------- 0 4.3 9.0 254 502
r 0.661683 0 9 tcp 1040 ------- 0 4.3 9.0 255 504
r 0.662515 0 9 tcp 1040 ------- 0 4.3 9.0 256 506
r 0.663347 0 9 tcp 1040 ------- 0 4.3 9.0 257 508
r 0.664179 0 9 tcp 1040 ------- 0 4.3 9.0 258 509
r 0.665011 0 9 tcp 1040 ------- 0 4.3 9.0 259 510
r 0.665843 0 9 tcp 1040 ------- 0 4.3 9.0 260 511
r 0.666675 0 9 tcp 1040 ------- 0 4.3 9.0 261 512
r 0.667507 0 9 tcp 1040 ------- 0 4.3 9.0 262 513
r 0.668339 0 9 tcp 1040 ------- 0 4.3 9.0 263 514
r 0.669171 0 9 tcp 1040 ------- 0 4.3 9.0 264 515
r 0.670003 0 9 tcp 1040 ------- 0 4.3 9.0 265 516
r 0.670835 0 9 tcp 1040 ------- 0 4.3 9.0 266 517
r 0.671667 0 9 tcp 1040 ------- 0 4.3 9.0 267 519
r 0.672499 0 9 tcp 1040 ------- 0 4.3 9.0 268 521
r 0.673331 0 9 tcp 1040 ------- 0 4.3 9.0 269 523
r 0.674163 0 9 tcp 1040 ------- 0 4.3 9.0 270 525
r 0.682483 0 9 tcp 1040 ------- 0 4.3 9.0 271 536
r 0.683315 0 9 tcp 1040 ------- 0 4.3 9.0 272 538
r 0.684147 0 9 tcp 1040 ------- 0 4.3 9.0 273 540
r 0.684979 0 9 tcp 1040 ------- 0 4.3 9.0 274 542
r 0.685811 0 9 tcp 1040 ------- 0 4.3 9.0 275 544
r 0.686643 0 9 tcp 1040 ------- 0 4.3 9.0 276 546
r 0.687475 0 9 tcp 1040 ------- 0 4.3 9.0 277 548
r 0.688307 0 9 tcp 1040 ------- 0 4.3 9.0 278 549
r 0.689139 0 9 tcp 1040 ------- 0 4.3 9.0 279 550
r 0.689971 0 9 tcp 1040 ------- 0 4.3 9.0 280 551
r 0.690803 0 9 tcp 1040 ------- 0 4.3 9.0 281 552
r 0.691635 0 9 tcp 1040 ------- 0 4.3 9.0 282 553
r 0.692467 0 9 tcp 1040 ------- 0 4.3 9.0 283 554
r 0.693299 0 9 tcp 1040 ------- 0 4.3 9.0 284 555
r 0.694131 0 9 tcp 1040 ------- 0 4.3 9.0 285 556
r 0.694963 0 9 tcp 1040 ------- 0 4.3 9.0 286 557
r 0.695795 0 9 tcp 1040 ------- 0 4.3 9.0 287 559
r 0.696627 0 9 tcp 1040 ------- 0 4.3 9.0 288 561
r 0.697459 0 9 tcp 1040 ------- 0 4.3 9.0 289 563
r 0.698291 0 9 tcp 1040 ------- 0 4.3 9.0 290 565
r 0.706612 0 9 tcp 1040 ------- 0 4.3 9.0 291 576
r 0.707444 0 9 tcp 1040 ------- 0 4.3 9.0 292 578
r 0.708276 0 9 tcp 1040 ------- 0 4.3 9.0 293 580
r 0.709108 0 9 tcp 1040 ------- 0 4.3 9.0 294 582
r 0.70994 0 9 tcp 1040 ------- 0 4.3 9.0 295 584
r 0.710772 0 9 tcp 1040 ------- 0 4.3 9.0 296 586
r 0.711604 0 9 tcp 1040 ------- 0 4.3 9.0 297 588
r 0.712436 0 9 tcp 1040 ------- 0 4.3 9.0 298 589
r 0.713268 0 9 tcp 1040 ------- 0 4.3 9.0 299 590
r 0.7141 0 9 tcp 1040 ------- 0 4.3 9.0 300 591
r 0.714932 0 9 tcp 1040 ------- 0 4.3 9.0 301 592
r 0.715764 0 9 tcp 1040 ------- 0 4.3 9.0 302 593
r 0.716596 0 9 tcp 1040 ------- 0 4.3 9.0 303 594
r 0.717428 0 9 tcp 1040 ------- 0 4.3 9.0 304 595
r 0.71826 0 9 tcp 1040 ------- 0 4.3 9.0 305 596
r 0.719092 0 9 tcp 1040 ------- 0 4.3 9.0 306 597
r 0.719924 0 9 tcp 1040 ------- 0 4.3 9.0 307 599
r 0.720756 0 9 tcp 1040 ------- 0 4.3 9.0 308 601
r 0.721588 0 9 tcp 1040 ------- 0 4.3 9.0 309 603
r 0.72242 0 9 tcp 1040 ------- 0 4.3 9.0 310 605
r 0.730741 0 9 tcp 1040 ------- 0 4.3 9.0 311 616
r 0.731573 0 9 tcp 1040 ------- 0 4.3 9.0 312 618
r 0.732405 0 9 tcp 1040 ------- 0 4.3 9.0 313 620
r 0.733237 0 9 tcp 1040 ------- 0 4.3 9.0 314 622
r 0.734069 0 9 tcp 1040 ------- 0 4.3 9.0 315 624
r 0.734901 0 9 tcp 1040 ------- 0 4.3 9.0 316 626
r 0.735733 0 9 tcp 1040 ------- 0 4.3 9.0 317 628
r 0.736565 0 9 tcp 1040 ------- 0 4.3 9.0 318 629
r 0.737397 0 9 tcp 1040 ------- 0 4.3 9.0 319 630
r 0.738229 0 9 tcp 1040 ------- 0 4.3 9.0 320 631
r 0.739061 0 9 tcp 1040 ------- 0 4.3 9.0 321 632
r 0.739893 0 9 tcp 1040 ------- 0 4.3 9.0 322 633
r 0.740725 0 9 tcp 1040 ------- 0 4.3 9.0 323 634
r 0.741557 0 9 tcp 1040 ------- 0 4.3 9.0 324 635
r 0.742389 0 9 tcp 1040 ------- 0 4.3 9.0 325 636
r 0.743221 0 9 tcp 1040 ------- 0 4.3 9.0 326 637
r 0.744053 0 9 tcp 1040 ------- 0 4.3 9.0 327 639
r 0.744885 0 9 tcp 1040 ------- 0 4.3 9.0 328 641
r 0.745717 0 9 tcp 1040 ------- 0 4.3 9.0 329 643
r 0.746549 0 9 tcp 1040 ------- 0 4.3 9.0 330 645
r 0.75487 0 9 tcp 1040 ------- 0 4.3 9.0 331 656
r 0.755702 0 9 tcp 1040 ------- 0 4.3 9.0 332 658
r 0.756534 0 9 tcp 1040 ------- 0 4.3 9.0 333 660
r 0.757366 0 9 tcp 1040 ------- 0 4.3 9.0 334 662
r 0.758198 0 9 tcp 1040 ------- 0 4.3 9.0 335 664
r 0.75903 0 9 tcp 1040 ------- 0 4.3 9.0 336 666
r 0.759862 0 9 tcp 1040 ------- 0 4.3 9.0 337 668
r 0.760694 0 9 tcp 1040 ------- 0 4.3 9.0 338 669
r 0.761526 0 9 tcp 1040 ------- 0 4.3 9.0 339 670
r 0.762358 0 9 tcp 1040 ------- 0 4.3 9.0 340 671
r 0.76319 0 9 tcp 1040 ------- 0 4.3 9.0 341 672
r 0.764022 0 9 tcp 1040 ------- 0 4.3 9.0 342 673
r 0.764854 0 9 tcp 1040 ------- 0 4.3 9.0 343 674
r 0.765686 0 9 tcp 1040 ------- 0 4.3 9.0 344 675
r 0.766518 0 9 tcp 1040 ------- 0 4.3 9.0 345 676
r 0.76735 0 9 tcp 1040 ------- 0 4.3 9.0 346 677
r 0.768182 0 9 tcp 1040 ------- 0 4.3 9.0 347 679
r 0.769014 0 9 tcp 1040 ------- 0 4.3 9.0 348 681
r 0.769846 0 9 tcp 1040 ------- 0 4.3 9.0 349 683
r 0.770678 0 9 tcp 1040 ------- 0 4.3 9.0 350 685
r 0.778999 0 9 tcp 1040 ------- 0 4.3 9.0 351 696
r 0.779831 0 9 tcp 1040 ------- 0 4.3 9.0 352 698
r 0.780663 0 9 tcp 1040 ------- 0 4.3 9.0 353 700
r 0.781495 0 9 tcp 1040 ------- 0 4.3 9.0 354 702
r 0.782327 0 9 tcp 1040 ------- 0 4.3 9.0 355 704
r 0.783159 0 9 tcp 1040 ------- 0 4.3 9.0 356 706
r 0.783991 0 9 tcp 1040 ------- 0 4.3 9.0 357 708
r 0.784823 0 9 tcp 1040 ------- 0 4.3 9.0 358 709
r 0.785655 0 9 tcp 1040 ------- 0 4.3 9.0 359 710
r 0.786487 0 9 tcp 1040 ------- 0 4.3 9.0 360 711
r 0.787319 0 9 tcp 1040 ------- 0 4.3 9.0 361 712
r 0.788151 0 9 tcp 1040 ------- 0 4.3 9.0 362 713
r 0.788983 0 9 tcp 1040 ------- 0 4.3 9.0 363 714
r 0.789815 0 9 tcp 1040 ------- 0 4.3 9.0 364 715
r 0.790647 0 9 tcp 1040 ------- 0 4.3 9.0 365 716
r 0.791479 0 9 tcp 1040 ------- 0 4.3 9.0 366 717
r 0.792311 0 9 tcp 1040 ------- 0 4.3 9.0 367 719
r 0.793143 0 9 tcp 1040 ------- 0 4.3 9.0 368 721
r 0.793975 0 9 tcp 1040 ------- 0 4.3 9.0 369 723
r 0.794807 0 9 tcp 1040 ------- 0 4.3 9.0 370 725
r 0.803127 0 9 tcp 1040 ------- 0 4.3 9.0 371 736
r 0.803959 0 9 tcp 1040 ------- 0 4.3 9.0 372 738
r 0.804791 0 9 tcp 1040 ------- 0 4.3 9.0 373 740
r 0.805623 0 9 tcp 1040 ------- 0 4.3 9.0 374 742
r 0.806455 0 9 tcp 1040 ------- 0 4.3 9.0 375 744
r 0.807287 0 9 tcp 1040 ------- 0 4.3 9.0 376 746
r 0.808119 0 9 tcp 1040 ------- 0 4.3 9.0 377 748
r 0.808951 0 9 tcp 1040 ------- 0 4.3 9.0 378 749
r 0.809783 0 9 tcp 1040 ------- 0 4.3 9.0 379 750
r 0.810615 0 9 tcp 1040 ------- 0 4.3 9.0 380 751
r 0.811447 0 9 tcp 1040 ------- 0 4.3 9.0 381 752
r 0.812279 0 9 tcp 1040 ------- 0 4.3 9.0 382 753
r 0.813111 0 9 tcp 1040 ------- 0 4.3 9.0 383 754
r 0.813943 0 9 tcp 1040 ------- 0 4.3 9.0 384 755
r 0.814775 0 9 tcp 1040 ------- 0 4.3 9.0 385 756
r 0.815607 0 9 tcp 1040 ------- 0 4.3 9.0 386 757
r 0.816439 0 9 tcp 1040 ------- 0 4.3 9.0 387 759
r 0.817271 0 9 tcp 1040 ------- 0 4.3 9.0 388 761
r 0.818103 0 9 tcp 1040 ------- 0 4.3 9.0 389 763
r 0.818935 0 9 tcp 1040 ------- 0 4.3 9.0 390 765
