r 0.111174 0 9 tcp 40 ------- 0 4.3 9.0 0 3
r 0.140199 0 9 tcp 1040 ------- 0 4.3 9.0 1 16
r 0.141031 0 9 tcp 1040 ------- 0 4.3 9.0 2 17
r 0.16932 0 9 tcp 1040 ------- 0 4.3 9.0 3 42
r 0.170152 0 9 tcp 1040 ------- 0 4.3 9.0 4 43
r 0.170984 0 9 tcp 1040 ------- 0 4.3 9.0 5 44
r 0.171816 0 9 tcp 1040 ------- 0 4.3 9.0 6 45
r 0.203433 0 9 tcp 1040 ------- 0 4.3 9.0 7 94
r 0.204265 0 9 tcp 1040 ------- 0 4.3 9.0 8 95
r 0.205097 0 9 tcp 1040 ------- 0 4.3 9.0 9 96
r 0.205929 0 9 tcp 1040 ------- 0 4.3 9.0 10 97
r 0.206761 0 9 tcp 1040 ------- 0 4.3 9.0 11 98
r 0.207593 0 9 tcp 1040 ------- 0 4.3 9.0 12 99
r 0.208425 0 9 tcp 1040 ------- 0 4.3 9.0 13 100
r 0.209257 0 9 tcp 1040 ------- 0 4.3 9.0 14 101
r 0.256681 0 9 tcp 1040 ------- 0 4.3 9.0 15 196
r 0.257513 0 9 tcp 1040 ------- 0 4.3 9.0 16 197
r 0.258345 0 9 tcp 1040 ------- 0 4.3 9.0 17 199
r 0.259177 0 9 tcp 1040 ------- 0 4.3 9.0 18 200
r 0.260009 0 9 tcp 1040 ------- 0 4.3 9.0 19 202
r 0.260841 0 9 tcp 1040 ------- 0 4.3 9.0 20 203
r 0.261673 0 9 tcp 1040 ------- 0 4.3 9.0 21 205
r 0.262505 0 9 tcp 1040 ------- 0 4.3 9.0 22 206
r 0.263337 0 9 tcp 1040 ------- 0 4.3 9.0 23 208
r 0.264169 0 9 tcp 1040 ------- 0 4.3 9.0 24 209
r 0.265001 0 9 tcp 1040 ------- 0 4.3 9.0 25 211
r 0.265833 0 9 tcp 1040 ------- 0 4.3 9.0 26 212
r 0.266665 0 9 tcp 1040 ------- 0 4.3 9.0 27 214
r 0.267497 0 9 tcp 1040 ------- 0 4.3 9.0 28 215
r 0.268329 0 9 tcp 1040 ------- 0 4.3 9.0 29 217
r 0.269161 0 9 tcp 1040 ------- 0 4.3 9.0 30 218
r 0.321577 0 9 tcp 1040 ------- 0 4.3 9.0 31 352
r 0.322409 0 9 tcp 1040 ------- 0 4.3 9.0 33 355
r 0.323241 0 9 tcp 1040 ------- 0 4.3 9.0 35 358
r 0.324073 0 9 tcp 1040 ------- 0 4.3 9.0 37 361
r 0.324905 0 9 tcp 1040 ------- 0 4.3 9.0 39 364
r 0.325737 0 9 tcp 1040 ------- 0 4.3 9.0 40 366
r 0.326569 0 9 tcp 1040 ------- 0 4.3 9.0 41 368
r 0.327401 0 9 tcp 1040 ------- 0 4.3 9.0 42 370
r 0.328233 0 9 tcp 1040 ------- 0 4.3 9.0 43 372
r 0.329065 0 9 tcp 1040 ------- 0 4.3 9.0 44 374
r 0.329897 0 9 tcp 1040 ------- 0 4.3 9.0 45 376
r 0.330729 0 9 tcp 1040 ------- 0 4.3 9.0 46 378
r 0.331561 0 9 tcp 1040 ------- 0 4.3 9.0 47 380
r 0.332393 0 9 tcp 1040 ------- 0 4.3 9.0 48 382
r 0.333225 0 9 tcp 1040 ------- 0 4.3 9.0 49 384
r 0.334057 0 9 tcp 1040 ------- 0 4.3 9.0 50 386
r 0.350697 0 9 tcp 1040 ------- 0 4.3 9.0 51 473
r 0.351529 0 9 tcp 1040 ---A--- 0 4.3 9.0 32 477
r 0.375658 0 9 tcp 1040 ------- 0 4.3 9.0 34 506
r 0.37649 0 9 tcp 1040 ------- 0 4.3 9.0 35 507
r 0.404778 0 9 tcp 1040 ------- 0 4.3 9.0 36 532
r 0.40561 0 9 tcp 1040 ------- 0 4.3 9.0 37 533
r 0.406442 0 9 tcp 1040 ------- 0 4.3 9.0 38 534
r 0.407274 0 9 tcp 1040 ------- 0 4.3 9.0 39 535
r 0.441387 0 9 tcp 1040 ------- 0 4.3 9.0 40 587
r 0.442219 0 9 tcp 1040 ------- 0 4.3 9.0 41 588
r 0.443051 0 9 tcp 1040 ------- 0 4.3 9.0 42 589
r 0.443883 0 9 tcp 1040 ------- 0 4.3 9.0 52 590
r 0.444715 0 9 tcp 1040 ------- 0 4.3 9.0 53 591
r 0.445547 0 9 tcp 1040 ------- 0 4.3 9.0 54 592
r 0.446379 0 9 tcp 1040 ------- 0 4.3 9.0 55 593
r 0.447211 0 9 tcp 1040 ------- 0 4.3 9.0 56 594
r 0.448043 0 9 tcp 1040 ------- 0 4.3 9.0 57 595
r 0.478827 0 9 tcp 1040 ------- 0 4.3 9.0 58 673
r 0.479659 0 9 tcp 1040 ------- 0 4.3 9.0 59 678
r 0.480491 0 9 tcp 1040 ------- 0 4.3 9.0 60 679
r 0.481323 0 9 tcp 1040 ------- 0 4.3 9.0 61 681
r 0.482155 0 9 tcp 1040 ------- 0 4.3 9.0 62 682
r 0.482987 0 9 tcp 1040 ------- 0 4.3 9.0 63 684
r 0.483819 0 9 tcp 1040 ------- 0 4.3 9.0 64 685
r 0.484651 0 9 tcp 1040 ------- 0 4.3 9.0 65 687
r 0.485483 0 9 tcp 1040 ------- 0 4.3 9.0 66 688
r 0.486315 0 9 tcp 1040 ------- 0 4.3 9.0 67 690
r 0.524587 0 9 tcp 1040 ------- 0 4.3 9.0 68 773
r 0.525419 0 9 tcp 1040 ------- 0 4.3 9.0 69 775
r 0.526251 0 9 tcp 1040 ------- 0 4.3 9.0 70 777
r 0.527083 0 9 tcp 1040 ------- 0 4.3 9.0 71 779
r 0.527915 0 9 tcp 1040 ------- 0 4.3 9.0 72 781
r 0.528747 0 9 tcp 1040 ------- 0 4.3 9.0 73 783
r 0.529579 0 9 tcp 1040 ------- 0 4.3 9.0 74 785
r 0.530411 0 9 tcp 1040 ------- 0 4.3 9.0 75 787
r 0.531243 0 9 tcp 1040 ------- 0 4.3 9.0 76 789
r 0.532075 0 9 tcp 1040 ------- 0 4.3 9.0 77 791
r 0.532907 0 9 tcp 1040 ------- 0 4.3 9.0 78 792
r 0.572011 0 9 tcp 1040 ------- 0 4.3 9.0 79 885
r 0.572843 0 9 tcp 1040 ------- 0 4.3 9.0 80 887
r 0.573675 0 9 tcp 1040 ------- 0 4.3 9.0 81 889
r 0.574507 0 9 tcp 1040 ------- 0 4.3 9.0 82 891
r 0.575339 0 9 tcp 1040 ------- 0 4.3 9.0 83 893
r 0.576171 0 9 tcp 1040 ------- 0 4.3 9.0 84 895
r 0.577003 0 9 tcp 1040 ------- 0 4.3 9.0 85 897
r 0.577835 0 9 tcp 1040 ------- 0 4.3 9.0 86 899
r 0.578667 0 9 tcp 1040 ------- 0 4.3 9.0 87 901
r 0.579499 0 9 tcp 1040 ------- 0 4.3 9.0 88 903
r 0.580331 0 9 tcp 1040 ------- 0 4.3 9.0 89 905
r 0.581163 0 9 tcp 1040 ------- 0 4.3 9.0 90 906
r 0.621099 0 9 tcp 1040 ------- 0 4.3 9.0 91 1001
r 0.621931 0 9 tcp 1040 ------- 0 4.3 9.0 92 1003
r 0.622763 0 9 tcp 1040 ------- 0 4.3 9.0 93 1005
r 0.623595 0 9 tcp 1040 ------- 0 4.3 9.0 94 1007
r 0.624427 0 9 tcp 1040 ------- 0 4.3 9.0 95 1009
r 0.625259 0 9 tcp 1040 ------- 0 4.3 9.0 96 1011
r 0.626091 0 9 tcp 1040 ------- 0 4.3 9.0 97 1013
r 0.626923 0 9 tcp 1040 ------- 0 4.3 9.0 98 1015
r 0.627755 0 9 tcp 1040 ------- 0 4.3 9.0 99 1017
r 0.628587 0 9 tcp 1040 ------- 0 4.3 9.0 100 1019
r 0.629419 0 9 tcp 1040 ------- 0 4.3 9.0 101 1021
r 0.630251 0 9 tcp 1040 ------- 0 4.3 9.0 102 1023
r 0.673515 0 9 tcp 1040 ------- 0 4.3 9.0 103 1123
r 0.674347 0 9 tcp 1040 ------- 0 4.3 9.0 104 1124
r 0.675179 0 9 tcp 1040 ------- 0 4.3 9.0 105 1126
r 0.676011 0 9 tcp 1040 ------- 0 4.3 9.0 106 1128
r 0.676843 0 9 tcp 1040 ------- 0 4.3 9.0 107 1130
r 0.677675 0 9 tcp 1040 ------- 0 4.3 9.0 108 1132
r 0.678507 0 9 tcp 1040 ------- 0 4.3 9.0 109 1134
r 0.679339 0 9 tcp 1040 ------- 0 4.3 9.0 110 1136
r 0.680171 0 9 tcp 1040 ------- 0 4.3 9.0 111 1138
r 0.681003 0 9 tcp 1040 ------- 0 4.3 9.0 112 1140
r 0.681835 0 9 tcp 1040 ------- 0 4.3 9.0 113 1142
r 0.682667 0 9 tcp 1040 ------- 0 4.3 9.0 114 1144
r 0.683499 0 9 tcp 1040 ------- 0 4.3 9.0 115 1146
r 0.730091 0 9 tcp 1040 ------- 0 4.3 9.0 116 1254
r 0.730923 0 9 tcp 1040 ------- 0 4.3 9.0 117 1256
r 0.731755 0 9 tcp 1040 ------- 0 4.3 9.0 118 1257
r 0.732587 0 9 tcp 1040 ------- 0 4.3 9.0 119 1259
r 0.733419 0 9 tcp 1040 ------- 0 4.3 9.0 120 1261
r 0.734251 0 9 tcp 1040 ------- 0 4.3 9.0 121 1263
r 0.735083 0 9 tcp 1040 ------- 0 4.3 9.0 122 1265
r 0.735915 0 9 tcp 1040 ------- 0 4.3 9.0 123 1267
r 0.736747 0 9 tcp 1040 ------- 0 4.3 9.0 124 1269
r 0.737579 0 9 tcp 1040 ------- 0 4.3 9.0 125 1271
r 0.738411 0 9 tcp 1040 ------- 0 4.3 9.0 126 1273
r 0.739243 0 9 tcp 1040 ------- 0 4.3 9.0 127 1275
r 0.740075 0 9 tcp 1040 ------- 0 4.3 9.0 128 1277
r 0.740907 0 9 tcp 1040 ------- 0 4.3 9.0 129 1279
r 0.790827 0 9 tcp 1040 ------- 0 4.3 9.0 130 1395
r 0.791659 0 9 tcp 1040 ------- 0 4.3 9.0 131 1397
r 0.792491 0 9 tcp 1040 ------- 0 4.3 9.0 132 1399
r 0.793323 0 9 tcp 1040 ------- 0 4.3 9.0 133 1401
r 0.794155 0 9 tcp 1040 ------- 0 4.3 9.0 134 1402
r 0.794987 0 9 tcp 1040 ------- 0 4.3 9.0 135 1404
r 0.795819 0 9 tcp 1040 ------- 0 4.3 9.0 136 1406
r 0.796651 0 9 tcp 1040 ------- 0 4.3 9.0 137 1408
r 0.797483 0 9 tcp 1040 ------- 0 4.3 9.0 138 1410
r 0.798315 0 9 tcp 1040 ------- 0 4.3 9.0 139 1412
r 0.799147 0 9 tcp 1040 ------- 0 4.3 9.0 140 1414
r 0.799979 0 9 tcp 1040 ------- 0 4.3 9.0 141 1416
r 0.800811 0 9 tcp 1040 ------- 0 4.3 9.0 142 1418
r 0.801643 0 9 tcp 1040 ------- 0 4.3 9.0 143 1420
r 0.802475 0 9 tcp 1040 ------- 0 4.3 9.0 144 1422
r 0.855723 0 9 tcp 1040 ------- 0 4.3 9.0 145 1546
r 0.856555 0 9 tcp 1040 ------- 0 4.3 9.0 146 1548
r 0.857387 0 9 tcp 1040 ------- 0 4.3 9.0 147 1550
r 0.858219 0 9 tcp 1040 ------- 0 4.3 9.0 148 1552
r 0.859051 0 9 tcp 1040 ------- 0 4.3 9.0 149 1554
r 0.859883 0 9 tcp 1040 ------- 0 4.3 9.0 151 1557
r 0.860715 0 9 tcp 1040 ------- 0 4.3 9.0 152 1559
r 0.861547 0 9 tcp 1040 ------- 0 4.3 9.0 153 1561
r 0.862379 0 9 tcp 1040 ------- 0 4.3 9.0 154 1563
r 0.863211 0 9 tcp 1040 ------- 0 4.3 9.0 155 1565
r 0.864043 0 9 tcp 1040 ------- 0 4.3 9.0 156 1567
r 0.864875 0 9 tcp 1040 ------- 0 4.3 9.0 157 1569
r 0.865707 0 9 tcp 1040 ------- 0 4.3 9.0 158 1571
r 0.866539 0 9 tcp 1040 ------- 0 4.3 9.0 159 1573
r 0.867371 0 9 tcp 1040 ------- 0 4.3 9.0 160 1575
r 0.920619 0 9 tcp 1040 ------- 0 4.3 9.0 161 1707
r 0.921451 0 9 tcp 1040 ------- 0 4.3 9.0 162 1709
r 0.922283 0 9 tcp 1040 ------- 0 4.3 9.0 163 1711
r 0.923115 0 9 tcp 1040 ------- 0 4.3 9.0 164 1713
r 0.923947 0 9 tcp 1040 ------- 0 4.3 9.0 165 1715
r 0.924779 0 9 tcp 1040 ------- 0 4.3 9.0 166 1717
r 0.925611 0 9 tcp 1040 ------- 0 4.3 9.0 167 1719
r 0.926443 0 9 tcp 1040 ---A--- 0 4.3 9.0 150 1721
r 0.964715 0 9 tcp 1040 ------- 0 4.3 9.0 168 1845
r 0.965547 0 9 tcp 1040 ------- 0 4.3 9.0 169 1846
r 0.989676 0 9 tcp 1040 ------- 0 4.3 9.0 170 1893
r 0.990508 0 9 tcp 1040 ------- 0 4.3 9.0 171 1894
r 0.99134 0 9 tcp 1040 ------- 0 4.3 9.0 172 1895
r 0.992172 0 9 tcp 1040 ------- 0 4.3 9.0 173 1896
r 1.015469 0 9 tcp 1040 ------- 0 4.3 9.0 174 1929
r 1.016301 0 9 tcp 1040 ------- 0 4.3 9.0 175 1930
r 1.017133 0 9 tcp 1040 ------- 0 4.3 9.0 176 1931
r 1.017965 0 9 tcp 1040 ------- 0 4.3 9.0 177 1932
r 1.018797 0 9 tcp 1040 ------- 0 4.3 9.0 178 1933
r 1.019629 0 9 tcp 1040 ------- 0 4.3 9.0 179 1934
r 1.020461 0 9 tcp 1040 ------- 0 4.3 9.0 180 1935
r 1.021293 0 9 tcp 1040 ------- 0 4.3 9.0 181 1936
r 1.048749 0 9 tcp 1040 ------- 0 4.3 9.0 182 1991
r 1.049581 0 9 tcp 1040 ------- 0 4.3 9.0 183 1993
r 1.050413 0 9 tcp 1040 ------- 0 4.3 9.0 184 1995
r 1.051245 0 9 tcp 1040 ------- 0 4.3 9.0 185 1997
r 1.052077 0 9 tcp 1040 ------- 0 4.3 9.0 186 1999
r 1.052909 0 9 tcp 1040 ------- 0 4.3 9.0 187 2001
r 1.053741 0 9 tcp 1040 ------- 0 4.3 9.0 188 2003
r 1.054573 0 9 tcp 1040 ------- 0 4.3 9.0 189 2005
r 1.082029 0 9 tcp 1040 ------- 0 4.3 9.0 190 2071
r 1.082861 0 9 tcp 1040 ------- 0 4.3 9.0 191 2072
r 1.083693 0 9 tcp 1040 ------- 0 4.3 9.0 192 2074
r 1.084525 0 9 tcp 1040 ------- 0 4.3 9.0 193 2076
r 1.085357 0 9 tcp 1040 ------- 0 4.3 9.0 194 2078
r 1.086189 0 9 tcp 1040 ------- 0 4.3 9.0 195 2080
r 1.087021 0 9 tcp 1040 ------- 0 4.3 9.0 196 2082
r 1.087853 0 9 tcp 1040 ------- 0 4.3 9.0 197 2084
r 1.088685 0 9 tcp 1040 ------- 0 4.3 9.0 198 2086
r 1.119469 0 9 tcp 1040 ------- 0 4.3 9.0 199 2156
r 1.120301 0 9 tcp 1040 ------- 0 4.3 9.0 200 2158
r 1.121133 0 9 tcp 1040 ------- 0 4.3 9.0 201 2159
r 1.121965 0 9 tcp 1040 ------- 0 4.3 9.0 202 2161
r 1.122797 0 9 tcp 1040 ------- 0 4.3 9.0 203 2163
r 1.123629 0 9 tcp 1040 ------- 0 4.3 9.0 204 2165
r 1.124461 0 9 tcp 1040 ------- 0 4.3 9.0 205 2167
r 1.125293 0 9 tcp 1040 ------- 0 4.3 9.0 206 2169
r 1.126125 0 9 tcp 1040 ------- 0 4.3 9.0 207 2171
r 1.126957 0 9 tcp 1040 ------- 0 4.3 9.0 208 2173
r 1.161069 0 9 tcp 1040 ------- 0 4.3 9.0 209 2251
r 1.161901 0 9 tcp 1040 ------- 0 4.3 9.0 210 2253
r 1.162733 0 9 tcp 1040 ------- 0 4.3 9.0 211 2255
r 1.163565 0 9 tcp 1040 ------- 0 4.3 9.0 212 2257
r 1.164397 0 9 tcp 1040 ------- 0 4.3 9.0 213 2258
r 1.165229 0 9 tcp 1040 ------- 0 4.3 9.0 214 2260
r 1.166061 0 9 tcp 1040 ------- 0 4.3 9.0 215 2262
r 1.166893 0 9 tcp 1040 ------- 0 4.3 9.0 216 2264
r 1.167725 0 9 tcp 1040 ------- 0 4.3 9.0 217 2266
r 1.168557 0 9 tcp 1040 ------- 0 4.3 9.0 218 2268
r 1.169389 0 9 tcp 1040 ------- 0 4.3 9.0 219 2270
r 1.206829 0 9 tcp 1040 ------- 0 4.3 9.0 220 2356
r 1.207661 0 9 tcp 1040 ------- 0 4.3 9.0 221 2358
r 1.208493 0 9 tcp 1040 ------- 0 4.3 9.0 222 2360
r 1.209325 0 9 tcp 1040 ------- 0 4.3 9.0 223 2362
r 1.210157 0 9 tcp 1040 ------- 0 4.3 9.0 224 2364
r 1.210989 0 9 tcp 1040 ------- 0 4.3 9.0 225 2365
r 1.211821 0 9 tcp 1040 ------- 0 4.3 9.0 226 2367
r 1.212653 0 9 tcp 1040 ------- 0 4.3 9.0 227 2369
r 1.213485 0 9 tcp 1040 ------- 0 4.3 9.0 228 2371
r 1.214317 0 9 tcp 1040 ------- 0 4.3 9.0 229 2373
r 1.215149 0 9 tcp 1040 ------- 0 4.3 9.0 230 2375
r 1.215981 0 9 tcp 1040 ------- 0 4.3 9.0 231 2377
r 1.256749 0 9 tcp 1040 ------- 0 4.3 9.0 232 2471
r 1.257581 0 9 tcp 1040 ------- 0 4.3 9.0 233 2473
r 1.258413 0 9 tcp 1040 ------- 0 4.3 9.0 234 2475
r 1.259245 0 9 tcp 1040 ------- 0 4.3 9.0 235 2477
r 1.260077 0 9 tcp 1040 ------- 0 4.3 9.0 236 2479
r 1.260909 0 9 tcp 1040 ------- 0 4.3 9.0 237 2481
r 1.261741 0 9 tcp 1040 ------- 0 4.3 9.0 238 2483
r 1.262573 0 9 tcp 1040 ------- 0 4.3 9.0 239 2484
r 1.263405 0 9 tcp 1040 ------- 0 4.3 9.0 240 2486
r 1.264237 0 9 tcp 1040 ------- 0 4.3 9.0 241 2488
r 1.265069 0 9 tcp 1040 ------- 0 4.3 9.0 242 2490
r 1.265901 0 9 tcp 1040 ------- 0 4.3 9.0 243 2492
r 1.266733 0 9 tcp 1040 ------- 0 4.3 9.0 244 2494
r 1.310829 0 9 tcp 1040 ------- 0 4.3 9.0 245 2596
r 1.311661 0 9 tcp 1040 ------- 0 4.3 9.0 246 2598
r 1.312493 0 9 tcp 1040 ------- 0 4.3 9.0 247 2600
r 1.313325 0 9 tcp 1040 ------- 0 4.3 9.0 248 2602
r 1.314157 0 9 tcp 1040 ------- 0 4.3 9.0 249 2604
r 1.314989 0 9 tcp 1040 ------- 0 4.3 9.0 250 2606
r 1.315821 0 9 tcp 1040 ------- 0 4.3 9.0 251 2608
r 1.316653 0 9 tcp 1040 ------- 0 4.3 9.0 252 2610
r 1.317485 0 9 tcp 1040 ------- 0 4.3 9.0 253 2611
r 1.318317 0 9 tcp 1040 ------- 0 4.3 9.0 254 2613
r 1.319149 0 9 tcp 1040 ------- 0 4.3 9.0 255 2615
r 1.319981 0 9 tcp 1040 ------- 0 4.3 9.0 256 2617
r 1.320813 0 9 tcp 1040 ------- 0 4.3 9.0 257 2619
r 1.321645 0 9 tcp 1040 ------- 0 4.3 9.0 258 2621
r 1.369069 0 9 tcp 1040 ------- 0 4.3 9.0 259 2731
r 1.369901 0 9 tcp 1040 ------- 0 4.3 9.0 260 2733
r 1.370733 0 9 tcp 1040 ------- 0 4.3 9.0 261 2735
r 1.371565 0 9 tcp 1040 ------- 0 4.3 9.0 262 2737
r 1.372397 0 9 tcp 1040 ------- 0 4.3 9.0 263 2739
r 1.373229 0 9 tcp 1040 ------- 0 4.3 9.0 264 2741
r 1.374061 0 9 tcp 1040 ------- 0 4.3 9.0 265 2743
r 1.374893 0 9 tcp 1040 ------- 0 4.3 9.0 266 2745
r 1.375725 0 9 tcp 1040 ------- 0 4.3 9.0 267 2747
r 1.376557 0 9 tcp 1040 ------- 0 4.3 9.0 268 2749
r 1.377389 0 9 tcp 1040 ------- 0 4.3 9.0 269 2750
r 1.378221 0 9 tcp 1040 ------- 0 4.3 9.0 270 2752
r 1.379053 0 9 tcp 1040 ------- 0 4.3 9.0 271 2754
r 1.379885 0 9 tcp 1040 ------- 0 4.3 9.0 272 2756
r 1.380717 0 9 tcp 1040 ------- 0 4.3 9.0 273 2758
r 1.431469 0 9 tcp 1040 ------- 0 4.3 9.0 274 2876
r 1.432301 0 9 tcp 1040 ------- 0 4.3 9.0 275 2878
r 1.433133 0 9 tcp 1040 ------- 0 4.3 9.0 276 2880
r 1.433965 0 9 tcp 1040 ------- 0 4.3 9.0 277 2882
r 1.434797 0 9 tcp 1040 ------- 0 4.3 9.0 278 2884
r 1.435629 0 9 tcp 1040 ------- 0 4.3 9.0 279 2886
r 1.436461 0 9 tcp 1040 ------- 0 4.3 9.0 280 2888
r 1.437293 0 9 tcp 1040 ------- 0 4.3 9.0 281 2890
r 1.438125 0 9 tcp 1040 ------- 0 4.3 9.0 282 2892
r 1.438957 0 9 tcp 1040 ------- 0 4.3 9.0 283 2894
r 1.439789 0 9 tcp 1040 ------- 0 4.3 9.0 284 2896
r 1.440621 0 9 tcp 1040 ------- 0 4.3 9.0 285 2897
r 1.441453 0 9 tcp 1040 ------- 0 4.3 9.0 286 2899
r 1.442285 0 9 tcp 1040 ------- 0 4.3 9.0 287 2901
r 1.443117 0 9 tcp 1040 ------- 0 4.3 9.0 288 2903
r 1.443949 0 9 tcp 1040 ------- 0 4.3 9.0 289 2905
r 1.496365 0 9 tcp 1040 ------- 0 4.3 9.0 290 3031
r 1.497197 0 9 tcp 1040 ------- 0 4.3 9.0 291 3033
r 1.498029 0 9 tcp 1040 ------- 0 4.3 9.0 292 3035
r 1.498861 0 9 tcp 1040 ------- 0 4.3 9.0 293 3037
r 1.499693 0 9 tcp 1040 ------- 0 4.3 9.0 294 3039
r 1.500525 0 9 tcp 1040 ------- 0 4.3 9.0 295 3041
r 1.501357 0 9 tcp 1040 ------- 0 4.3 9.0 296 3043
r 1.502189 0 9 tcp 1040 ------- 0 4.3 9.0 297 3045
r 1.503021 0 9 tcp 1040 ------- 0 4.3 9.0 298 3047
r 1.503853 0 9 tcp 1040 ------- 0 4.3 9.0 299 3049
r 1.504685 0 9 tcp 1040 ------- 0 4.3 9.0 300 3051
r 1.505517 0 9 tcp 1040 ------- 0 4.3 9.0 301 3053
r 1.506349 0 9 tcp 1040 ------- 0 4.3 9.0 302 3055
r 1.507181 0 9 tcp 1040 ------- 0 4.3 9.0 304 3058
r 1.508013 0 9 tcp 1040 ------- 0 4.3 9.0 305 3060
r 1.508845 0 9 tcp 1040 ------- 0 4.3 9.0 306 3062
r 1.559597 0 9 tcp 1040 ------- 0 4.3 9.0 307 3188
r 1.560429 0 9 tcp 1040 ------- 0 4.3 9.0 308 3190
r 1.561261 0 9 tcp 1040 ------- 0 4.3 9.0 309 3192
r 1.562093 0 9 tcp 1040 ------- 0 4.3 9.0 310 3194
r 1.562925 0 9 tcp 1040 ------- 0 4.3 9.0 311 3196
r 1.563757 0 9 tcp 1040 ------- 0 4.3 9.0 312 3198
r 1.564589 0 9 tcp 1040 ------- 0 4.3 9.0 313 3200
r 1.565421 0 9 tcp 1040 ------- 0 4.3 9.0 314 3202
r 1.566253 0 9 tcp 1040 ------- 0 4.3 9.0 315 3204
r 1.567085 0 9 tcp 1040 ------- 0 4.3 9.0 316 3206
r 1.567917 0 9 tcp 1040 ------- 0 4.3 9.0 317 3208
r 1.568749 0 9 tcp 1040 ------- 0 4.3 9.0 318 3210
r 1.569581 0 9 tcp 1040 ------- 0 4.3 9.0 319 3212
r 1.570413 0 9 tcp 1040 ------- 0 4.3 9.0 320 3214
r 1.571245 0 9 tcp 1040 ------- 0 4.3 9.0 321 3216
r 1.572077 0 9 tcp 1040 ---A--- 0 4.3 9.0 303 3218
r 1.602861 0 9 tcp 1040 ------- 0 4.3 9.0 322 3331
r 1.603693 0 9 tcp 1040 ------- 0 4.3 9.0 323 3332
r 1.63115 0 9 tcp 1040 ------- 0 4.3 9.0 324 3372
r 1.631982 0 9 tcp 1040 ------- 0 4.3 9.0 325 3373
r 1.632814 0 9 tcp 1040 ------- 0 4.3 9.0 326 3374
r 1.633646 0 9 tcp 1040 ------- 0 4.3 9.0 327 3375
r 1.663598 0 9 tcp 1040 ------- 0 4.3 9.0 328 3418
r 1.66443 0 9 tcp 1040 ------- 0 4.3 9.0 329 3419
r 1.665262 0 9 tcp 1040 ------- 0 4.3 9.0 330 3420
r 1.666094 0 9 tcp 1040 ------- 0 4.3 9.0 331 3421
r 1.666926 0 9 tcp 1040 ------- 0 4.3 9.0 332 3422
r 1.667758 0 9 tcp 1040 ------- 0 4.3 9.0 333 3423
r 1.66859 0 9 tcp 1040 ------- 0 4.3 9.0 334 3424
r 1.669422 0 9 tcp 1040 ------- 0 4.3 9.0 335 3425
r 1.696878 0 9 tcp 1040 ------- 0 4.3 9.0 336 3492
r 1.69771 0 9 tcp 1040 ------- 0 4.3 9.0 337 3494
r 1.698542 0 9 tcp 1040 ------- 0 4.3 9.0 338 3496
r 1.699374 0 9 tcp 1040 ------- 0 4.3 9.0 339 3498
r 1.700206 0 9 tcp 1040 ------- 0 4.3 9.0 340 3500
r 1.701038 0 9 tcp 1040 ------- 0 4.3 9.0 341 3502
r 1.70187 0 9 tcp 1040 ------- 0 4.3 9.0 342 3504
r 1.702702 0 9 tcp 1040 ------- 0 4.3 9.0 343 3506
r 1.731822 0 9 tcp 1040 ------- 0 4.3 9.0 344 3574
r 1.732654 0 9 tcp 1040 ------- 0 4.3 9.0 345 3575
r 1.733486 0 9 tcp 1040 ------- 0 4.3 9.0 346 3577
r 1.734318 0 9 tcp 1040 ------- 0 4.3 9.0 347 3579
r 1.73515 0 9 tcp 1040 ------- 0 4.3 9.0 348 3581
r 1.735982 0 9 tcp 1040 ------- 0 4.3 9.0 349 3583
r 1.736814 0 9 tcp 1040 ------- 0 4.3 9.0 350 3585
r 1.737646 0 9 tcp 1040 ------- 0 4.3 9.0 351 3587
r 1.738478 0 9 tcp 1040 ------- 0 4.3 9.0 352 3589
r 1.770926 0 9 tcp 1040 ------- 0 4.3 9.0 353 3663
r 1.771758 0 9 tcp 1040 ------- 0 4.3 9.0 354 3665
r 1.77259 0 9 tcp 1040 ------- 0 4.3 9.0 355 3666
r 1.773422 0 9 tcp 1040 ------- 0 4.3 9.0 356 3668
r 1.774254 0 9 tcp 1040 ------- 0 4.3 9.0 357 3670
r 1.775086 0 9 tcp 1040 ------- 0 4.3 9.0 358 3672
r 1.775918 0 9 tcp 1040 ------- 0 4.3 9.0 359 3674
r 1.77675 0 9 tcp 1040 ------- 0 4.3 9.0 360 3676
r 1.777582 0 9 tcp 1040 ------- 0 4.3 9.0 361 3678
r 1.778414 0 9 tcp 1040 ------- 0 4.3 9.0 362 3680
r 1.81419 0 9 tcp 1040 ------- 0 4.3 9.0 363 3762
r 1.815022 0 9 tcp 1040 ------- 0 4.3 9.0 364 3764
r 1.815854 0 9 tcp 1040 ------- 0 4.3 9.0 365 3766
r 1.816686 0 9 tcp 1040 ------- 0 4.3 9.0 366 3768
r 1.817518 0 9 tcp 1040 ------- 0 4.3 9.0 367 3769
r 1.81835 0 9 tcp 1040 ------- 0 4.3 9.0 368 3771
r 1.819182 0 9 tcp 1040 ------- 0 4.3 9.0 369 3773
r 1.820014 0 9 tcp 1040 ------- 0 4.3 9.0 370 3775
r 1.820846 0 9 tcp 1040 ------- 0 4.3 9.0 371 3777
r 1.821678 0 9 tcp 1040 ------- 0 4.3 9.0 372 3779
r 1.82251 0 9 tcp 1040 ------- 0 4.3 9.0 373 3781
r 1.861614 0 9 tcp 1040 ------- 0 4.3 9.0 374 3871
r 1.862446 0 9 tcp 1040 ------- 0 4.3 9.0 375 3873
r 1.863278 0 9 tcp 1040 ------- 0 4.3 9.0 376 3875
r 1.86411 0 9 tcp 1040 ------- 0 4.3 9.0 377 3877
r 1.864942 0 9 tcp 1040 ------- 0 4.3 9.0 378 3879
r 1.865774 0 9 tcp 1040 ------- 0 4.3 9.0 379 3880
r 1.866606 0 9 tcp 1040 ------- 0 4.3 9.0 380 3882
r 1.867438 0 9 tcp 1040 ------- 0 4.3 9.0 381 3884
r 1.86827 0 9 tcp 1040 ------- 0 4.3 9.0 382 3886
r 1.869102 0 9 tcp 1040 ------- 0 4.3 9.0 383 3888
r 1.869934 0 9 tcp 1040 ------- 0 4.3 9.0 384 3890
r 1.870766 0 9 tcp 1040 ------- 0 4.3 9.0 385 3892
r 1.913198 0 9 tcp 1040 ------- 0 4.3 9.0 386 3990
r 1.91403 0 9 tcp 1040 ------- 0 4.3 9.0 387 3992
r 1.914862 0 9 tcp 1040 ------- 0 4.3 9.0 388 3994
r 1.915694 0 9 tcp 1040 ------- 0 4.3 9.0 389 3996
r 1.916526 0 9 tcp 1040 ------- 0 4.3 9.0 390 3998
r 1.917358 0 9 tcp 1040 ------- 0 4.3 9.0 391 4000
r 1.91819 0 9 tcp 1040 ------- 0 4.3 9.0 392 4002
r 1.919022 0 9 tcp 1040 ------- 0 4.3 9.0 393 4003
r 1.919854 0 9 tcp 1040 ------- 0 4.3 9.0 394 4005
r 1.920686 0 9 tcp 1040 ------- 0 4.3 9.0 395 4007
r 1.921518 0 9 tcp 1040 ------- 0 4.3 9.0 396 4009
r 1.92235 0 9 tcp 1040 ------- 0 4.3 9.0 397 4011
r 1.923182 0 9 tcp 1040 ------- 0 4.3 9.0 398 4013
r 1.968942 0 9 tcp 1040 ------- 0 4.3 9.0 399 4119
r 1.969774 0 9 tcp 1040 ------- 0 4.3 9.0 400 4121
r 1.970606 0 9 tcp 1040 ------- 0 4.3 9.0 401 4123
r 1.971438 0 9 tcp 1040 ------- 0 4.3 9.0 402 4125
r 1.97227 0 9 tcp 1040 ------- 0 4.3 9.0 403 4127
r 1.973102 0 9 tcp 1040 ------- 0 4.3 9.0 404 4129
r 1.973934 0 9 tcp 1040 ------- 0 4.3 9.0 405 4131
r 1.974766 0 9 tcp 1040 ------- 0 4.3 9.0 406 4133
r 1.975598 0 9 tcp 1040 ------- 0 4.3 9.0 407 4134
r 1.97643 0 9 tcp 1040 ------- 0 4.3 9.0 408 4136
r 1.977262 0 9 tcp 1040 ------- 0 4.3 9.0 409 4138
r 1.978094 0 9 tcp 1040 ------- 0 4.3 9.0 410 4140
r 1.978926 0 9 tcp 1040 ------- 0 4.3 9.0 411 4142
r 1.979758 0 9 tcp 1040 ------- 0 4.3 9.0 412 4144
r 2.028846 0 9 tcp 1040 ------- 0 4.3 9.0 413 4258
r 2.029678 0 9 tcp 1040 ------- 0 4.3 9.0 414 4260
r 2.03051 0 9 tcp 1040 ------- 0 4.3 9.0 415 4262
r 2.031342 0 9 tcp 1040 ------- 0 4.3 9.0 416 4264
r 2.032174 0 9 tcp 1040 ------- 0 4.3 9.0 417 4266
r 2.033006 0 9 tcp 1040 ------- 0 4.3 9.0 418 4268
r 2.033838 0 9 tcp 1040 ------- 0 4.3 9.0 419 4270
r 2.03467 0 9 tcp 1040 ------- 0 4.3 9.0 420 4272
r 2.035502 0 9 tcp 1040 ------- 0 4.3 9.0 421 4274
r 2.036334 0 9 tcp 1040 ------- 0 4.3 9.0 422 4276
r 2.037166 0 9 tcp 1040 ------- 0 4.3 9.0 423 4277
r 2.037998 0 9 tcp 1040 ------- 0 4.3 9.0 424 4279
r 2.03883 0 9 tcp 1040 ------- 0 4.3 9.0 425 4281
r 2.039662 0 9 tcp 1040 ------- 0 4.3 9.0 426 4283
r 2.040494 0 9 tcp 1040 ------- 0 4.3 9.0 427 4285
r 2.09291 0 9 tcp 1040 ------- 0 4.3 9.0 428 4407
r 2.093742 0 9 tcp 1040 ------- 0 4.3 9.0 429 4409
r 2.094574 0 9 tcp 1040 ------- 0 4.3 9.0 430 4411
r 2.095406 0 9 tcp 1040 ------- 0 4.3 9.0 431 4413
r 2.096238 0 9 tcp 1040 ------- 0 4.3 9.0 432 4415
r 2.09707 0 9 tcp 1040 ------- 0 4.3 9.0 433 4417
r 2.097902 0 9 tcp 1040 ------- 0 4.3 9.0 434 4419
r 2.098734 0 9 tcp 1040 ------- 0 4.3 9.0 435 4421
r 2.099566 0 9 tcp 1040 ------- 0 4.3 9.0 436 4423
r 2.100398 0 9 tcp 1040 ------- 0 4.3 9.0 437 4425
r 2.10123 0 9 tcp 1040 ------- 0 4.3 9.0 438 4427
r 2.102062 0 9 tcp 1040 ------- 0 4.3 9.0 439 4428
r 2.102894 0 9 tcp 1040 ------- 0 4.3 9.0 440 4430
r 2.103726 0 9 tcp 1040 ------- 0 4.3 9.0 441 4432
r 2.104558 0 9 tcp 1040 ------- 0 4.3 9.0 442 4434
r 2.10539 0 9 tcp 1040 ------- 0 4.3 9.0 443 4436
r 2.157806 0 9 tcp 1040 ------- 0 4.3 9.0 444 4566
r 2.158638 0 9 tcp 1040 ------- 0 4.3 9.0 445 4568
r 2.15947 0 9 tcp 1040 ------- 0 4.3 9.0 446 4570
r 2.160302 0 9 tcp 1040 ------- 0 4.3 9.0 447 4572
r 2.161134 0 9 tcp 1040 ------- 0 4.3 9.0 448 4574
r 2.161966 0 9 tcp 1040 ------- 0 4.3 9.0 449 4576
r 2.162798 0 9 tcp 1040 ------- 0 4.3 9.0 450 4578
r 2.16363 0 9 tcp 1040 ------- 0 4.3 9.0 451 4580
r 2.164462 0 9 tcp 1040 ------- 0 4.3 9.0 452 4582
r 2.165294 0 9 tcp 1040 ------- 0 4.3 9.0 453 4584
r 2.166126 0 9 tcp 1040 ------- 0 4.3 9.0 454 4586
r 2.166958 0 9 tcp 1040 ------- 0 4.3 9.0 455 4588
r 2.16779 0 9 tcp 1040 ------- 0 4.3 9.0 456 4590
r 2.168622 0 9 tcp 1040 ------- 0 4.3 9.0 458 4593
r 2.169454 0 9 tcp 1040 ------- 0 4.3 9.0 459 4595
r 2.170286 0 9 tcp 1040 ------- 0 4.3 9.0 460 4597
r 2.221038 0 9 tcp 1040 ------- 0 4.3 9.0 461 4721
r 2.22187 0 9 tcp 1040 ------- 0 4.3 9.0 462 4723
r 2.222702 0 9 tcp 1040 ------- 0 4.3 9.0 463 4725
r 2.223534 0 9 tcp 1040 ------- 0 4.3 9.0 464 4727
r 2.224366 0 9 tcp 1040 ------- 0 4.3 9.0 465 4729
r 2.225198 0 9 tcp 1040 ------- 0 4.3 9.0 466 4731
r 2.22603 0 9 tcp 1040 ------- 0 4.3 9.0 467 4733
r 2.226862 0 9 tcp 1040 ------- 0 4.3 9.0 468 4735
r 2.227694 0 9 tcp 1040 ------- 0 4.3 9.0 469 4737
r 2.228526 0 9 tcp 1040 ------- 0 4.3 9.0 470 4739
r 2.229358 0 9 tcp 1040 ------- 0 4.3 9.0 471 4741
r 2.23019 0 9 tcp 1040 ------- 0 4.3 9.0 472 4743
r 2.231022 0 9 tcp 1040 ------- 0 4.3 9.0 473 4745
r 2.231854 0 9 tcp 1040 ------- 0 4.3 9.0 474 4747
r 2.232686 0 9 tcp 1040 ------- 0 4.3 9.0 475 4749
r 2.233518 0 9 tcp 1040 ---A--- 0 4.3 9.0 457 4751
r 2.257647 0 9 tcp 1040 ------- 0 4.3 9.0 476 4830
r 2.258479 0 9 tcp 1040 ------- 0 4.3 9.0 477 4831
r 2.281776 0 9 tcp 1040 ------- 0 4.3 9.0 478 4863
r 2.282608 0 9 tcp 1040 ------- 0 4.3 9.0 479 4864
r 2.28344 0 9 tcp 1040 ------- 0 4.3 9.0 480 4866
r 2.284272 0 9 tcp 1040 ------- 0 4.3 9.0 481 4867
r 2.311728 0 9 tcp 1040 ------- 0 4.3 9.0 482 4917
r 2.31256 0 9 tcp 1040 ------- 0 4.3 9.0 483 4918
r 2.313392 0 9 tcp 1040 ------- 0 4.3 9.0 484 4920
r 2.314224 0 9 tcp 1040 ------- 0 4.3 9.0 485 4921
r 2.315056 0 9 tcp 1040 ------- 0 4.3 9.0 486 4923
r 2.315888 0 9 tcp 1040 ------- 0 4.3 9.0 487 4924
r 2.31672 0 9 tcp 1040 ------- 0 4.3 9.0 488 4926
r 2.317552 0 9 tcp 1040 ------- 0 4.3 9.0 489 4927
r 2.345008 0 9 tcp 1040 ------- 0 4.3 9.0 490 4993
r 2.34584 0 9 tcp 1040 ------- 0 4.3 9.0 491 4995
r 2.346672 0 9 tcp 1040 ------- 0 4.3 9.0 492 4997
r 2.347504 0 9 tcp 1040 ------- 0 4.3 9.0 493 4999
r 2.348336 0 9 tcp 1040 ------- 0 4.3 9.0 494 5001
r 2.349168 0 9 tcp 1040 ------- 0 4.3 9.0 495 5003
r 2.35 0 9 tcp 1040 ------- 0 4.3 9.0 496 5005
r 2.350832 0 9 tcp 1040 ------- 0 4.3 9.0 497 5007
r 2.381616 0 9 tcp 1040 ------- 0 4.3 9.0 498 5077
r 2.382448 0 9 tcp 1040 ------- 0 4.3 9.0 499 5078
r 2.38328 0 9 tcp 1040 ------- 0 4.3 9.0 500 5080
r 2.384112 0 9 tcp 1040 ------- 0 4.3 9.0 501 5082
r 2.384944 0 9 tcp 1040 ------- 0 4.3 9.0 502 5084
r 2.385776 0 9 tcp 1040 ------- 0 4.3 9.0 503 5086
r 2.386608 0 9 tcp 1040 ------- 0 4.3 9.0 504 5088
r 2.38744 0 9 tcp 1040 ------- 0 4.3 9.0 505 5090
r 2.388272 0 9 tcp 1040 ------- 0 4.3 9.0 506 5092
r 2.422384 0 9 tcp 1040 ------- 0 4.3 9.0 507 5170
r 2.423216 0 9 tcp 1040 ------- 0 4.3 9.0 508 5172
r 2.424048 0 9 tcp 1040 ------- 0 4.3 9.0 509 5173
r 2.42488 0 9 tcp 1040 ------- 0 4.3 9.0 510 5175
r 2.425712 0 9 tcp 1040 ------- 0 4.3 9.0 511 5177
r 2.426544 0 9 tcp 1040 ------- 0 4.3 9.0 512 5179
r 2.427376 0 9 tcp 1040 ------- 0 4.3 9.0 513 5181
r 2.428208 0 9 tcp 1040 ------- 0 4.3 9.0 514 5183
r 2.42904 0 9 tcp 1040 ------- 0 4.3 9.0 515 5185
r 2.429872 0 9 tcp 1040 ------- 0 4.3 9.0 516 5187
r 2.467312 0 9 tcp 1040 ------- 0 4.3 9.0 517 5273
r 2.468144 0 9 tcp 1040 ------- 0 4.3 9.0 518 5275
r 2.468976 0 9 tcp 1040 ------- 0 4.3 9.0 519 5277
r 2.469808 0 9 tcp 1040 ------- 0 4.3 9.0 520 5279
r 2.47064 0 9 tcp 1040 ------- 0 4.3 9.0 521 5280
r 2.471472 0 9 tcp 1040 ------- 0 4.3 9.0 522 5282
r 2.472304 0 9 tcp 1040 ------- 0 4.3 9.0 523 5284
r 2.473136 0 9 tcp 1040 ------- 0 4.3 9.0 524 5286
r 2.473968 0 9 tcp 1040 ------- 0 4.3 9.0 525 5288
r 2.4748 0 9 tcp 1040 ------- 0 4.3 9.0 526 5290
r 2.475632 0 9 tcp 1040 ------- 0 4.3 9.0 527 5292
r 2.5164 0 9 tcp 1040 ------- 0 4.3 9.0 528 5386
r 2.517232 0 9 tcp 1040 ------- 0 4.3 9.0 529 5388
r 2.518064 0 9 tcp 1040 ------- 0 4.3 9.0 530 5390
r 2.518896 0 9 tcp 1040 ------- 0 4.3 9.0 531 5392
r 2.519728 0 9 tcp 1040 ------- 0 4.3 9.0 532 5394
r 2.52056 0 9 tcp 1040 ------- 0 4.3 9.0 533 5395
r 2.521392 0 9 tcp 1040 ------- 0 4.3 9.0 534 5397
r 2.522224 0 9 tcp 1040 ------- 0 4.3 9.0 535 5399
r 2.523056 0 9 tcp 1040 ------- 0 4.3 9.0 536 5401
r 2.523888 0 9 tcp 1040 ------- 0 4.3 9.0 537 5403
r 2.52472 0 9 tcp 1040 ------- 0 4.3 9.0 538 5405
r 2.525552 0 9 tcp 1040 ------- 0 4.3 9.0 539 5407
r 2.569648 0 9 tcp 1040 ------- 0 4.3 9.0 540 5509
r 2.57048 0 9 tcp 1040 ------- 0 4.3 9.0 541 5511
r 2.571312 0 9 tcp 1040 ------- 0 4.3 9.0 542 5513
r 2.572144 0 9 tcp 1040 ------- 0 4.3 9.0 543 5515
r 2.572976 0 9 tcp 1040 ------- 0 4.3 9.0 544 5517
r 2.573808 0 9 tcp 1040 ------- 0 4.3 9.0 545 5519
r 2.57464 0 9 tcp 1040 ------- 0 4.3 9.0 546 5521
r 2.575472 0 9 tcp 1040 ------- 0 4.3 9.0 547 5522
r 2.576304 0 9 tcp 1040 ------- 0 4.3 9.0 548 5524
r 2.577136 0 9 tcp 1040 ------- 0 4.3 9.0 549 5526
r 2.577968 0 9 tcp 1040 ------- 0 4.3 9.0 550 5528
r 2.5788 0 9 tcp 1040 ------- 0 4.3 9.0 551 5530
r 2.579632 0 9 tcp 1040 ------- 0 4.3 9.0 552 5532
r 2.627056 0 9 tcp 1040 ------- 0 4.3 9.0 553 5642
r 2.627888 0 9 tcp 1040 ------- 0 4.3 9.0 554 5644
r 2.62872 0 9 tcp 1040 ------- 0 4.3 9.0 555 5646
r 2.629552 0 9 tcp 1040 ------- 0 4.3 9.0 556 5648
r 2.630384 0 9 tcp 1040 ------- 0 4.3 9.0 557 5650
r 2.631216 0 9 tcp 1040 ------- 0 4.3 9.0 558 5652
r 2.632048 0 9 tcp 1040 ------- 0 4.3 9.0 559 5654
r 2.63288 0 9 tcp 1040 ------- 0 4.3 9.0 560 5656
r 2.633712 0 9 tcp 1040 ------- 0 4.3 9.0 561 5657
r 2.634544 0 9 tcp 1040 ------- 0 4.3 9.0 562 5659
r 2.635376 0 9 tcp 1040 ------- 0 4.3 9.0 563 5661
r 2.636208 0 9 tcp 1040 ------- 0 4.3 9.0 564 5663
r 2.63704 0 9 tcp 1040 ------- 0 4.3 9.0 565 5665
r 2.637872 0 9 tcp 1040 ------- 0 4.3 9.0 566 5667
r 2.688624 0 9 tcp 1040 ------- 0 4.3 9.0 567 5785
r 2.689456 0 9 tcp 1040 ------- 0 4.3 9.0 568 5787
r 2.690288 0 9 tcp 1040 ------- 0 4.3 9.0 569 5789
r 2.69112 0 9 tcp 1040 ------- 0 4.3 9.0 570 5791
r 2.691952 0 9 tcp 1040 ------- 0 4.3 9.0 571 5793
r 2.692784 0 9 tcp 1040 ------- 0 4.3 9.0 572 5795
r 2.693616 0 9 tcp 1040 ------- 0 4.3 9.0 573 5797
r 2.694448 0 9 tcp 1040 ------- 0 4.3 9.0 574 5799
r 2.69528 0 9 tcp 1040 ------- 0 4.3 9.0 575 5801
r 2.696112 0 9 tcp 1040 ------- 0 4.3 9.0 576 5803
r 2.696944 0 9 tcp 1040 ------- 0 4.3 9.0 577 5804
r 2.697776 0 9 tcp 1040 ------- 0 4.3 9.0 578 5806
r 2.698608 0 9 tcp 1040 ------- 0 4.3 9.0 579 5808
r 2.69944 0 9 tcp 1040 ------- 0 4.3 9.0 580 5810
r 2.700272 0 9 tcp 1040 ------- 0 4.3 9.0 581 5812
r 2.75352 0 9 tcp 1040 ------- 0 4.3 9.0 582 5938
r 2.754352 0 9 tcp 1040 ------- 0 4.3 9.0 583 5940
r 2.755184 0 9 tcp 1040 ------- 0 4.3 9.0 584 5942
r 2.756016 0 9 tcp 1040 ------- 0 4.3 9.0 585 5944
r 2.756848 0 9 tcp 1040 ------- 0 4.3 9.0 586 5946
r 2.75768 0 9 tcp 1040 ------- 0 4.3 9.0 587 5948