r 5.320114 0 7 tcp 40 ------- 0 4.1 7.0 0 5470
r 5.344435 0 7 tcp 1040 ------- 0 4.1 7.0 1 5509
r 5.345267 0 7 tcp 1040 ------- 0 4.1 7.0 2 5510
r 5.368564 0 7 tcp 1040 ------- 0 4.1 7.0 3 5555
r 5.369396 0 7 tcp 1040 ------- 0 4.1 7.0 4 5556
r 5.370228 0 7 tcp 1040 ------- 0 4.1 7.0 5 5557
r 5.37106 0 7 tcp 1040 ------- 0 4.1 7.0 6 5558
r 5.392693 0 7 tcp 1040 ------- 0 4.1 7.0 7 5605
r 5.393525 0 7 tcp 1040 ------- 0 4.1 7.0 8 5606
r 5.394357 0 7 tcp 1040 ------- 0 4.1 7.0 9 5607
r 5.395189 0 7 tcp 1040 ------- 0 4.1 7.0 10 5608
r 5.396021 0 7 tcp 1040 ------- 0 4.1 7.0 11 5610
r 5.396853 0 7 tcp 1040 ------- 0 4.1 7.0 12 5611
r 5.397685 0 7 tcp 1040 ------- 0 4.1 7.0 13 5613
r 5.398517 0 7 tcp 1040 ------- 0 4.1 7.0 14 5614
r 5.417276 0 7 tcp 1040 ------- 0 4.1 7.0 15 5660
r 5.418108 0 7 tcp 1040 ------- 0 4.1 7.0 16 5661
r 5.41894 0 7 tcp 1040 ------- 0 4.1 7.0 17 5663
r 5.419772 0 7 tcp 1040 ------- 0 4.1 7.0 18 5664
r 5.420604 0 7 tcp 1040 ------- 0 4.1 7.0 19 5666
r 5.421436 0 7 tcp 1040 ------- 0 4.1 7.0 20 5667
r 5.422268 0 7 tcp 1040 ------- 0 4.1 7.0 21 5669
r 5.4231 0 7 tcp 1040 ------- 0 4.1 7.0 22 5670
r 5.423932 0 7 tcp 1040 ------- 0 4.1 7.0 23 5672
r 5.424764 0 7 tcp 1040 ------- 0 4.1 7.0 24 5673
r 5.425596 0 7 tcp 1040 ------- 0 4.1 7.0 25 5675
r 5.426428 0 7 tcp 1040 ------- 0 4.1 7.0 26 5676
r 5.42726 0 7 tcp 1040 ------- 0 4.1 7.0 27 5678
r 5.428092 0 7 tcp 1040 ------- 0 4.1 7.0 28 5679
r 5.428924 0 7 tcp 1040 ------- 0 4.1 7.0 29 5681
r 5.429756 0 7 tcp 1040 ------- 0 4.1 7.0 30 5682
r 5.447228 0 7 tcp 1040 ------- 0 4.1 7.0 31 5726
r 5.44806 0 7 tcp 1040 ------- 0 4.1 7.0 32 5727
r 5.448892 0 7 tcp 1040 ------- 0 4.1 7.0 33 5729
r 5.449724 0 7 tcp 1040 ------- 0 4.1 7.0 34 5730
r 5.450556 0 7 tcp 1040 ------- 0 4.1 7.0 35 5732
r 5.451388 0 7 tcp 1040 ------- 0 4.1 7.0 36 5733
r 5.45222 0 7 tcp 1040 ------- 0 4.1 7.0 37 5735
r 5.453052 0 7 tcp 1040 ------- 0 4.1 7.0 38 5736
r 5.453884 0 7 tcp 1040 ------- 0 4.1 7.0 39 5738
r 5.454716 0 7 tcp 1040 ------- 0 4.1 7.0 40 5740
r 5.455548 0 7 tcp 1040 ------- 0 4.1 7.0 41 5742
r 5.45638 0 7 tcp 1040 ------- 0 4.1 7.0 42 5744
r 5.457212 0 7 tcp 1040 ------- 0 4.1 7.0 43 5746
r 5.458044 0 7 tcp 1040 ------- 0 4.1 7.0 44 5748
r 5.458876 0 7 tcp 1040 ------- 0 4.1 7.0 45 5750
r 5.459708 0 7 tcp 1040 ------- 0 4.1 7.0 46 5752
r 5.46054 0 7 tcp 1040 ------- 0 4.1 7.0 47 5754
r 5.461372 0 7 tcp 1040 ------- 0 4.1 7.0 48 5756
r 5.462204 0 7 tcp 1040 ------- 0 4.1 7.0 49 5758
r 5.463036 0 7 tcp 1040 ------- 0 4.1 7.0 50 5762
r 5.480508 0 7 tcp 1040 ------- 0 4.1 7.0 51 5804
r 5.48134 0 7 tcp 1040 ------- 0 4.1 7.0 52 5806
r 5.482172 0 7 tcp 1040 ------- 0 4.1 7.0 53 5808
r 5.483004 0 7 tcp 1040 ------- 0 4.1 7.0 54 5810
r 5.483836 0 7 tcp 1040 ------- 0 4.1 7.0 55 5812
r 5.484668 0 7 tcp 1040 ------- 0 4.1 7.0 56 5814
r 5.4855 0 7 tcp 1040 ------- 0 4.1 7.0 57 5816
r 5.486332 0 7 tcp 1040 ------- 0 4.1 7.0 58 5818
r 5.487164 0 7 tcp 1040 ------- 0 4.1 7.0 59 5820
r 5.487996 0 7 tcp 1040 ------- 0 4.1 7.0 60 5822
r 5.488828 0 7 tcp 1040 ------- 0 4.1 7.0 61 5824
r 5.48966 0 7 tcp 1040 ------- 0 4.1 7.0 62 5828
r 5.490492 0 7 tcp 1040 ------- 0 4.1 7.0 63 5830
r 5.491324 0 7 tcp 1040 ------- 0 4.1 7.0 64 5832
r 5.492156 0 7 tcp 1040 ------- 0 4.1 7.0 65 5834
r 5.492988 0 7 tcp 1040 ------- 0 4.1 7.0 66 5836
r 5.49382 0 7 tcp 1040 ------- 0 4.1 7.0 67 5838
r 5.494652 0 7 tcp 1040 ------- 0 4.1 7.0 68 5840
r 5.495484 0 7 tcp 1040 ------- 0 4.1 7.0 69 5842
r 5.496316 0 7 tcp 1040 ------- 0 4.1 7.0 70 5844
r 5.513788 0 7 tcp 1040 ------- 0 4.1 7.0 71 5886
r 5.51462 0 7 tcp 1040 ------- 0 4.1 7.0 72 5888
r 5.515452 0 7 tcp 1040 ------- 0 4.1 7.0 73 5890
r 5.516284 0 7 tcp 1040 ------- 0 4.1 7.0 74 5894
r 5.517116 0 7 tcp 1040 ------- 0 4.1 7.0 75 5896
r 5.517948 0 7 tcp 1040 ------- 0 4.1 7.0 76 5898
r 5.51878 0 7 tcp 1040 ------- 0 4.1 7.0 77 5900
r 5.519612 0 7 tcp 1040 ------- 0 4.1 7.0 78 5902
r 5.520444 0 7 tcp 1040 ------- 0 4.1 7.0 79 5904
r 5.521276 0 7 tcp 1040 ------- 0 4.1 7.0 80 5906
r 5.522108 0 7 tcp 1040 ------- 0 4.1 7.0 81 5908
r 5.52294 0 7 tcp 1040 ------- 0 4.1 7.0 82 5910
r 5.523772 0 7 tcp 1040 ------- 0 4.1 7.0 83 5912
r 5.524604 0 7 tcp 1040 ------- 0 4.1 7.0 84 5914
r 5.525436 0 7 tcp 1040 ------- 0 4.1 7.0 85 5916
r 5.526268 0 7 tcp 1040 ------- 0 4.1 7.0 86 5918
r 5.5271 0 7 tcp 1040 ------- 0 4.1 7.0 87 5920
r 5.527932 0 7 tcp 1040 ------- 0 4.1 7.0 88 5923
r 5.528764 0 7 tcp 1040 ------- 0 4.1 7.0 89 5925
r 5.529596 0 7 tcp 1040 ------- 0 4.1 7.0 90 5926
r 5.547068 0 7 tcp 1040 ------- 0 4.1 7.0 91 5970
r 5.5479 0 7 tcp 1040 ------- 0 4.1 7.0 92 5972
r 5.548732 0 7 tcp 1040 ------- 0 4.1 7.0 93 5974
r 5.549564 0 7 tcp 1040 ------- 0 4.1 7.0 94 5976
r 5.550396 0 7 tcp 1040 ------- 0 4.1 7.0 95 5978
r 5.551228 0 7 tcp 1040 ------- 0 4.1 7.0 96 5980
r 5.55206 0 7 tcp 1040 ------- 0 4.1 7.0 97 5982
r 5.552892 0 7 tcp 1040 ------- 0 4.1 7.0 98 5984
r 5.553724 0 7 tcp 1040 ------- 0 4.1 7.0 99 5986
r 5.554556 0 7 tcp 1040 ------- 0 4.1 7.0 100 5988
r 5.555388 0 7 tcp 1040 ------- 0 4.1 7.0 101 5991
r 5.55622 0 7 tcp 1040 ------- 0 4.1 7.0 102 5992
r 5.557052 0 7 tcp 1040 ------- 0 4.1 7.0 103 5994
r 5.557884 0 7 tcp 1040 ------- 0 4.1 7.0 104 5996
r 5.558716 0 7 tcp 1040 ------- 0 4.1 7.0 105 5998
r 5.559548 0 7 tcp 1040 ------- 0 4.1 7.0 106 6000
r 5.56038 0 7 tcp 1040 ------- 0 4.1 7.0 107 6002
r 5.561212 0 7 tcp 1040 ------- 0 4.1 7.0 108 6004
r 5.562044 0 7 tcp 1040 ------- 0 4.1 7.0 109 6006
r 5.562876 0 7 tcp 1040 ------- 0 4.1 7.0 110 6008
r 5.580348 0 7 tcp 1040 ------- 0 4.1 7.0 111 6052
r 5.58118 0 7 tcp 1040 ------- 0 4.1 7.0 112 6054
r 5.582012 0 7 tcp 1040 ------- 0 4.1 7.0 113 6057
r 5.582844 0 7 tcp 1040 ------- 0 4.1 7.0 114 6058
r 5.583676 0 7 tcp 1040 ------- 0 4.1 7.0 115 6060
r 5.584508 0 7 tcp 1040 ------- 0 4.1 7.0 116 6062
r 5.58534 0 7 tcp 1040 ------- 0 4.1 7.0 117 6064
r 5.586172 0 7 tcp 1040 ------- 0 4.1 7.0 118 6066
r 5.587004 0 7 tcp 1040 ------- 0 4.1 7.0 119 6068
r 5.587836 0 7 tcp 1040 ------- 0 4.1 7.0 120 6070
r 5.588668 0 7 tcp 1040 ------- 0 4.1 7.0 121 6072
r 5.5895 0 7 tcp 1040 ------- 0 4.1 7.0 122 6074
r 5.590332 0 7 tcp 1040 ------- 0 4.1 7.0 123 6076
r 5.591164 0 7 tcp 1040 ------- 0 4.1 7.0 124 6078
r 5.591996 0 7 tcp 1040 ------- 0 4.1 7.0 125 6080
r 5.592828 0 7 tcp 1040 ------- 0 4.1 7.0 126 6082
r 5.59366 0 7 tcp 1040 ------- 0 4.1 7.0 127 6084
r 5.594492 0 7 tcp 1040 ------- 0 4.1 7.0 128 6086
r 5.595324 0 7 tcp 1040 ------- 0 4.1 7.0 129 6088
r 5.596156 0 7 tcp 1040 ------- 0 4.1 7.0 130 6090
r 5.613628 0 7 tcp 1040 ------- 0 4.1 7.0 131 6134
r 5.61446 0 7 tcp 1040 ------- 0 4.1 7.0 132 6136
r 5.615292 0 7 tcp 1040 ------- 0 4.1 7.0 133 6138
r 5.616124 0 7 tcp 1040 ------- 0 4.1 7.0 134 6140
r 5.616956 0 7 tcp 1040 ------- 0 4.1 7.0 135 6142
r 5.617788 0 7 tcp 1040 ------- 0 4.1 7.0 136 6144
r 5.61862 0 7 tcp 1040 ------- 0 4.1 7.0 137 6146
r 5.619452 0 7 tcp 1040 ------- 0 4.1 7.0 138 6148
r 5.620284 0 7 tcp 1040 ------- 0 4.1 7.0 139 6150
r 5.621116 0 7 tcp 1040 ------- 0 4.1 7.0 140 6152
r 5.621948 0 7 tcp 1040 ------- 0 4.1 7.0 141 6154
r 5.62278 0 7 tcp 1040 ------- 0 4.1 7.0 142 6156
r 5.623612 0 7 tcp 1040 ------- 0 4.1 7.0 143 6160
r 5.624444 0 7 tcp 1040 ------- 0 4.1 7.0 144 6162
r 5.625276 0 7 tcp 1040 ------- 0 4.1 7.0 145 6164
r 5.626108 0 7 tcp 1040 ------- 0 4.1 7.0 146 6166
r 5.62694 0 7 tcp 1040 ------- 0 4.1 7.0 147 6168
r 5.627772 0 7 tcp 1040 ------- 0 4.1 7.0 148 6170
r 5.628604 0 7 tcp 1040 ------- 0 4.1 7.0 149 6172
r 5.629436 0 7 tcp 1040 ------- 0 4.1 7.0 150 6174
r 5.646908 0 7 tcp 1040 ------- 0 4.1 7.0 151 6216
r 5.64774 0 7 tcp 1040 ------- 0 4.1 7.0 152 6218
r 5.648572 0 7 tcp 1040 ------- 0 4.1 7.0 153 6220
r 5.649404 0 7 tcp 1040 ------- 0 4.1 7.0 154 6222
r 5.650236 0 7 tcp 1040 ------- 0 4.1 7.0 155 6226
r 5.651068 0 7 tcp 1040 ------- 0 4.1 7.0 156 6228
r 5.6519 0 7 tcp 1040 ------- 0 4.1 7.0 157 6230
r 5.652732 0 7 tcp 1040 ------- 0 4.1 7.0 158 6232
r 5.653564 0 7 tcp 1040 ------- 0 4.1 7.0 159 6234
r 5.654396 0 7 tcp 1040 ------- 0 4.1 7.0 160 6236
r 5.655228 0 7 tcp 1040 ------- 0 4.1 7.0 161 6238
r 5.65606 0 7 tcp 1040 ------- 0 4.1 7.0 162 6240
r 5.656892 0 7 tcp 1040 ------- 0 4.1 7.0 163 6242
r 5.657724 0 7 tcp 1040 ------- 0 4.1 7.0 164 6244
r 5.658556 0 7 tcp 1040 ------- 0 4.1 7.0 165 6246
r 5.659388 0 7 tcp 1040 ------- 0 4.1 7.0 166 6248
r 5.66022 0 7 tcp 1040 ------- 0 4.1 7.0 167 6250
r 5.661052 0 7 tcp 1040 ------- 0 4.1 7.0 168 6252
r 5.661884 0 7 tcp 1040 ------- 0 4.1 7.0 169 6255
r 5.662716 0 7 tcp 1040 ------- 0 4.1 7.0 170 6257
r 5.680188 0 7 tcp 1040 ------- 0 4.1 7.0 171 6300
r 5.68102 0 7 tcp 1040 ------- 0 4.1 7.0 172 6302
r 5.681852 0 7 tcp 1040 ------- 0 4.1 7.0 173 6304
r 5.682684 0 7 tcp 1040 ------- 0 4.1 7.0 174 6306
r 5.683516 0 7 tcp 1040 ------- 0 4.1 7.0 175 6308
r 5.684348 0 7 tcp 1040 ------- 0 4.1 7.0 176 6310
r 5.68518 0 7 tcp 1040 ------- 0 4.1 7.0 177 6312
r 5.686012 0 7 tcp 1040 ------- 0 4.1 7.0 178 6314
r 5.686844 0 7 tcp 1040 ------- 0 4.1 7.0 179 6316
r 5.687676 0 7 tcp 1040 ------- 0 4.1 7.0 180 6318
r 5.688508 0 7 tcp 1040 ------- 0 4.1 7.0 181 6320
r 5.68934 0 7 tcp 1040 ------- 0 4.1 7.0 182 6323
r 5.690172 0 7 tcp 1040 ------- 0 4.1 7.0 183 6324
r 5.691004 0 7 tcp 1040 ------- 0 4.1 7.0 184 6326
r 5.691836 0 7 tcp 1040 ------- 0 4.1 7.0 185 6328
r 5.692668 0 7 tcp 1040 ------- 0 4.1 7.0 186 6330
r 5.6935 0 7 tcp 1040 ------- 0 4.1 7.0 187 6332
r 5.694332 0 7 tcp 1040 ------- 0 4.1 7.0 188 6334
r 5.695164 0 7 tcp 1040 ------- 0 4.1 7.0 189 6336
r 5.695996 0 7 tcp 1040 ------- 0 4.1 7.0 190 6338
r 5.713468 0 7 tcp 1040 ------- 0 4.1 7.0 191 6382
r 5.7143 0 7 tcp 1040 ------- 0 4.1 7.0 192 6384
r 5.715132 0 7 tcp 1040 ------- 0 4.1 7.0 193 6386
r 5.715964 0 7 tcp 1040 ------- 0 4.1 7.0 194 6389
r 5.716796 0 7 tcp 1040 ------- 0 4.1 7.0 195 6390
r 5.717628 0 7 tcp 1040 ------- 0 4.1 7.0 196 6392
r 5.71846 0 7 tcp 1040 ------- 0 4.1 7.0 197 6394
r 5.719292 0 7 tcp 1040 ------- 0 4.1 7.0 198 6396
r 5.720124 0 7 tcp 1040 ------- 0 4.1 7.0 199 6398
r 5.720956 0 7 tcp 1040 ------- 0 4.1 7.0 200 6400
r 5.721788 0 7 tcp 1040 ------- 0 4.1 7.0 201 6402
r 5.72262 0 7 tcp 1040 ------- 0 4.1 7.0 202 6404
r 5.723452 0 7 tcp 1040 ------- 0 4.1 7.0 203 6406
r 5.724284 0 7 tcp 1040 ------- 0 4.1 7.0 204 6408
r 5.725116 0 7 tcp 1040 ------- 0 4.1 7.0 205 6410
r 5.725948 0 7 tcp 1040 ------- 0 4.1 7.0 206 6412
r 5.72678 0 7 tcp 1040 ------- 0 4.1 7.0 207 6414
r 5.727612 0 7 tcp 1040 ------- 0 4.1 7.0 208 6416
r 5.728444 0 7 tcp 1040 ------- 0 4.1 7.0 209 6418
r 5.729276 0 7 tcp 1040 ------- 0 4.1 7.0 210 6420
r 5.746748 0 7 tcp 1040 ------- 0 4.1 7.0 211 6464
r 5.74758 0 7 tcp 1040 ------- 0 4.1 7.0 212 6466
r 5.748412 0 7 tcp 1040 ------- 0 4.1 7.0 213 6468
r 5.749244 0 7 tcp 1040 ------- 0 4.1 7.0 214 6470
r 5.750076 0 7 tcp 1040 ------- 0 4.1 7.0 215 6472
r 5.750908 0 7 tcp 1040 ------- 0 4.1 7.0 216 6474
r 5.75174 0 7 tcp 1040 ------- 0 4.1 7.0 217 6476
r 5.752572 0 7 tcp 1040 ------- 0 4.1 7.0 218 6478
r 5.753404 0 7 tcp 1040 ------- 0 4.1 7.0 219 6480
r 5.754236 0 7 tcp 1040 ------- 0 4.1 7.0 220 6482
r 5.755068 0 7 tcp 1040 ------- 0 4.1 7.0 221 6484
r 5.7559 0 7 tcp 1040 ------- 0 4.1 7.0 222 6486
r 5.756732 0 7 tcp 1040 ------- 0 4.1 7.0 223 6488
r 5.757564 0 7 tcp 1040 ------- 0 4.1 7.0 224 6492
r 5.758396 0 7 tcp 1040 ------- 0 4.1 7.0 225 6494
r 5.759228 0 7 tcp 1040 ------- 0 4.1 7.0 226 6496
r 5.76006 0 7 tcp 1040 ------- 0 4.1 7.0 227 6498
r 5.760892 0 7 tcp 1040 ------- 0 4.1 7.0 228 6500
r 5.761724 0 7 tcp 1040 ------- 0 4.1 7.0 229 6502
r 5.762556 0 7 tcp 1040 ------- 0 4.1 7.0 230 6504
r 5.780028 0 7 tcp 1040 ------- 0 4.1 7.0 231 6546
r 5.78086 0 7 tcp 1040 ------- 0 4.1 7.0 232 6548
r 5.781692 0 7 tcp 1040 ------- 0 4.1 7.0 233 6550
r 5.782524 0 7 tcp 1040 ------- 0 4.1 7.0 234 6552
r 5.783356 0 7 tcp 1040 ------- 0 4.1 7.0 235 6554
r 5.784188 0 7 tcp 1040 ------- 0 4.1 7.0 236 6558
r 5.78502 0 7 tcp 1040 ------- 0 4.1 7.0 237 6560
r 5.785852 0 7 tcp 1040 ------- 0 4.1 7.0 238 6562
r 5.786684 0 7 tcp 1040 ------- 0 4.1 7.0 239 6564
r 5.787516 0 7 tcp 1040 ------- 0 4.1 7.0 240 6566
r 5.788348 0 7 tcp 1040 ------- 0 4.1 7.0 241 6568
r 5.78918 0 7 tcp 1040 ------- 0 4.1 7.0 242 6570
r 5.790012 0 7 tcp 1040 ------- 0 4.1 7.0 243 6572
r 5.790844 0 7 tcp 1040 ------- 0 4.1 7.0 244 6574
r 5.791676 0 7 tcp 1040 ------- 0 4.1 7.0 245 6576
r 5.792508 0 7 tcp 1040 ------- 0 4.1 7.0 246 6578
r 5.79334 0 7 tcp 1040 ------- 0 4.1 7.0 247 6580
r 5.794172 0 7 tcp 1040 ------- 0 4.1 7.0 248 6582
r 5.795004 0 7 tcp 1040 ------- 0 4.1 7.0 249 6584
r 5.795836 0 7 tcp 1040 ------- 0 4.1 7.0 250 6587
r 5.813308 0 7 tcp 1040 ------- 0 4.1 7.0 251 6630
r 5.81414 0 7 tcp 1040 ------- 0 4.1 7.0 252 6632
r 5.814972 0 7 tcp 1040 ------- 0 4.1 7.0 253 6634
r 5.815804 0 7 tcp 1040 ------- 0 4.1 7.0 254 6636
r 5.816636 0 7 tcp 1040 ------- 0 4.1 7.0 255 6638
r 5.817468 0 7 tcp 1040 ------- 0 4.1 7.0 256 6640
r 5.8183 0 7 tcp 1040 ------- 0 4.1 7.0 257 6642
r 5.819132 0 7 tcp 1040 ------- 0 4.1 7.0 258 6644
r 5.819964 0 7 tcp 1040 ------- 0 4.1 7.0 259 6646
r 5.820796 0 7 tcp 1040 ------- 0 4.1 7.0 260 6648
r 5.821628 0 7 tcp 1040 ------- 0 4.1 7.0 261 6650
r 5.82246 0 7 tcp 1040 ------- 0 4.1 7.0 262 6652
r 5.823292 0 7 tcp 1040 ------- 0 4.1 7.0 263 6655
r 5.824124 0 7 tcp 1040 ------- 0 4.1 7.0 264 6656
r 5.824956 0 7 tcp 1040 ------- 0 4.1 7.0 265 6658
r 5.825788 0 7 tcp 1040 ------- 0 4.1 7.0 266 6660
r 5.82662 0 7 tcp 1040 ------- 0 4.1 7.0 267 6662
r 5.827452 0 7 tcp 1040 ------- 0 4.1 7.0 268 6664
r 5.828284 0 7 tcp 1040 ------- 0 4.1 7.0 269 6666
r 5.829116 0 7 tcp 1040 ------- 0 4.1 7.0 270 6668
r 5.846588 0 7 tcp 1040 ------- 0 4.1 7.0 271 6712
r 5.84742 0 7 tcp 1040 ------- 0 4.1 7.0 272 6714
r 5.848252 0 7 tcp 1040 ------- 0 4.1 7.0 273 6716
r 5.849084 0 7 tcp 1040 ------- 0 4.1 7.0 274 6718
r 5.849916 0 7 tcp 1040 ------- 0 4.1 7.0 275 6721
r 5.850748 0 7 tcp 1040 ------- 0 4.1 7.0 276 6722
r 5.85158 0 7 tcp 1040 ------- 0 4.1 7.0 277 6724
r 5.852412 0 7 tcp 1040 ------- 0 4.1 7.0 278 6726
r 5.853244 0 7 tcp 1040 ------- 0 4.1 7.0 279 6728
r 5.854076 0 7 tcp 1040 ------- 0 4.1 7.0 280 6730
r 5.854908 0 7 tcp 1040 ------- 0 4.1 7.0 281 6732
r 5.85574 0 7 tcp 1040 ------- 0 4.1 7.0 282 6734
r 5.856572 0 7 tcp 1040 ------- 0 4.1 7.0 283 6736
r 5.857404 0 7 tcp 1040 ------- 0 4.1 7.0 284 6738
r 5.858236 0 7 tcp 1040 ------- 0 4.1 7.0 285 6740
r 5.859068 0 7 tcp 1040 ------- 0 4.1 7.0 286 6742
r 5.8599 0 7 tcp 1040 ------- 0 4.1 7.0 287 6744
r 5.860732 0 7 tcp 1040 ------- 0 4.1 7.0 288 6746
r 5.861564 0 7 tcp 1040 ------- 0 4.1 7.0 289 6750
r 5.862396 0 7 tcp 1040 ------- 0 4.1 7.0 290 6752
r 5.879868 0 7 tcp 1040 ------- 0 4.1 7.0 291 6796
r 5.8807 0 7 tcp 1040 ------- 0 4.1 7.0 292 6798
r 5.881532 0 7 tcp 1040 ------- 0 4.1 7.0 293 6800
r 5.882364 0 7 tcp 1040 ------- 0 4.1 7.0 294 6802
r 5.883196 0 7 tcp 1040 ------- 0 4.1 7.0 295 6804
r 5.884028 0 7 tcp 1040 ------- 0 4.1 7.0 296 6806
r 5.88486 0 7 tcp 1040 ------- 0 4.1 7.0 297 6808
r 5.885692 0 7 tcp 1040 ------- 0 4.1 7.0 298 6810
r 5.886524 0 7 tcp 1040 ------- 0 4.1 7.0 299 6812
r 5.887356 0 7 tcp 1040 ------- 0 4.1 7.0 300 6814
r 5.888188 0 7 tcp 1040 ------- 0 4.1 7.0 301 6818
r 5.88902 0 7 tcp 1040 ------- 0 4.1 7.0 302 6820
r 5.889852 0 7 tcp 1040 ------- 0 4.1 7.0 303 6822
r 5.890684 0 7 tcp 1040 ------- 0 4.1 7.0 304 6824
r 5.891516 0 7 tcp 1040 ------- 0 4.1 7.0 305 6828
r 5.892348 0 7 tcp 1040 ------- 0 4.1 7.0 306 6830
r 5.89318 0 7 tcp 1040 ------- 0 4.1 7.0 307 6832
r 5.894012 0 7 tcp 1040 ------- 0 4.1 7.0 308 6834
r 5.894844 0 7 tcp 1040 ------- 0 4.1 7.0 309 6836
r 5.895676 0 7 tcp 1040 ------- 0 4.1 7.0 310 6838
r 5.913148 0 7 tcp 1040 ------- 0 4.1 7.0 311 6880
r 5.91398 0 7 tcp 1040 ------- 0 4.1 7.0 312 6882
r 5.914812 0 7 tcp 1040 ------- 0 4.1 7.0 313 6886
r 5.915644 0 7 tcp 1040 ------- 0 4.1 7.0 314 6888
r 5.916476 0 7 tcp 1040 ------- 0 4.1 7.0 315 6890
r 5.917308 0 7 tcp 1040 ------- 0 4.1 7.0 316 6892
r 5.91814 0 7 tcp 1040 ------- 0 4.1 7.0 317 6896
r 5.918972 0 7 tcp 1040 ------- 0 4.1 7.0 318 6898
r 5.919804 0 7 tcp 1040 ------- 0 4.1 7.0 319 6900
r 5.920636 0 7 tcp 1040 ------- 0 4.1 7.0 320 6902
r 5.921468 0 7 tcp 1040 ------- 0 4.1 7.0 321 6904
r 5.9223 0 7 tcp 1040 ------- 0 4.1 7.0 322 6906
r 5.923132 0 7 tcp 1040 ------- 0 4.1 7.0 323 6908
r 5.923964 0 7 tcp 1040 ------- 0 4.1 7.0 324 6910
r 5.924796 0 7 tcp 1040 ------- 0 4.1 7.0 325 6912
r 5.925628 0 7 tcp 1040 ------- 0 4.1 7.0 326 6914
r 5.92646 0 7 tcp 1040 ------- 0 4.1 7.0 327 6916
r 5.927292 0 7 tcp 1040 ------- 0 4.1 7.0 328 6919
r 5.928124 0 7 tcp 1040 ------- 0 4.1 7.0 329 6920
r 5.928956 0 7 tcp 1040 ------- 0 4.1 7.0 330 6922
r 5.946428 0 7 tcp 1040 ------- 0 4.1 7.0 331 6968
r 5.94726 0 7 tcp 1040 ------- 0 4.1 7.0 332 6970
r 5.948092 0 7 tcp 1040 ------- 0 4.1 7.0 333 6972
r 5.948924 0 7 tcp 1040 ------- 0 4.1 7.0 334 6974
r 5.949756 0 7 tcp 1040 ------- 0 4.1 7.0 335 6976
r 5.950588 0 7 tcp 1040 ------- 0 4.1 7.0 336 6978
r 5.95142 0 7 tcp 1040 ------- 0 4.1 7.0 337 6980
r 5.952252 0 7 tcp 1040 ------- 0 4.1 7.0 338 6982
r 5.953084 0 7 tcp 1040 ------- 0 4.1 7.0 339 6984
r 5.953916 0 7 tcp 1040 ------- 0 4.1 7.0 340 6987
r 5.954748 0 7 tcp 1040 ------- 0 4.1 7.0 341 6988
r 5.95558 0 7 tcp 1040 ------- 0 4.1 7.0 342 6990
r 5.956412 0 7 tcp 1040 ------- 0 4.1 7.0 343 6992
r 5.957244 0 7 tcp 1040 ------- 0 4.1 7.0 344 6995
r 5.958076 0 7 tcp 1040 ------- 0 4.1 7.0 345 6996
r 5.958908 0 7 tcp 1040 ------- 0 4.1 7.0 346 6998
r 5.95974 0 7 tcp 1040 ------- 0 4.1 7.0 347 7000
r 5.960572 0 7 tcp 1040 ------- 0 4.1 7.0 348 7002
r 5.961404 0 7 tcp 1040 ------- 0 4.1 7.0 349 7004
r 5.962236 0 7 tcp 1040 ------- 0 4.1 7.0 350 7006
r 5.979708 0 7 tcp 1040 ------- 0 4.1 7.0 351 7052
r 5.98054 0 7 tcp 1040 ------- 0 4.1 7.0 352 7055
r 5.981372 0 7 tcp 1040 ------- 0 4.1 7.0 353 7056
r 5.982204 0 7 tcp 1040 ------- 0 4.1 7.0 354 7058
r 5.983036 0 7 tcp 1040 ------- 0 4.1 7.0 355 7060
r 5.983868 0 7 tcp 1040 ------- 0 4.1 7.0 356 7063
r 5.9847 0 7 tcp 1040 ------- 0 4.1 7.0 357 7064
r 5.985532 0 7 tcp 1040 ------- 0 4.1 7.0 358 7066
r 5.986364 0 7 tcp 1040 ------- 0 4.1 7.0 359 7068
r 5.987196 0 7 tcp 1040 ------- 0 4.1 7.0 360 7070
r 5.988028 0 7 tcp 1040 ------- 0 4.1 7.0 361 7072
r 5.98886 0 7 tcp 1040 ------- 0 4.1 7.0 362 7074
r 5.989692 0 7 tcp 1040 ------- 0 4.1 7.0 363 7076
r 5.990524 0 7 tcp 1040 ------- 0 4.1 7.0 364 7078
r 5.991356 0 7 tcp 1040 ------- 0 4.1 7.0 365 7080
r 5.992188 0 7 tcp 1040 ------- 0 4.1 7.0 366 7082
r 5.99302 0 7 tcp 1040 ------- 0 4.1 7.0 367 7084
r 5.993852 0 7 tcp 1040 ------- 0 4.1 7.0 368 7086
r 5.994684 0 7 tcp 1040 ------- 0 4.1 7.0 369 7088
r 5.995516 0 7 tcp 1040 ------- 0 4.1 7.0 370 7092
r 6.012988 0 7 tcp 1040 ------- 0 4.1 7.0 371 7136
r 6.01382 0 7 tcp 1040 ------- 0 4.1 7.0 372 7138
r 6.014652 0 7 tcp 1040 ------- 0 4.1 7.0 373 7140
r 6.015484 0 7 tcp 1040 ------- 0 4.1 7.0 374 7142
r 6.016316 0 7 tcp 1040 ------- 0 4.1 7.0 375 7144
r 6.017148 0 7 tcp 1040 ------- 0 4.1 7.0 376 7146
r 6.01798 0 7 tcp 1040 ------- 0 4.1 7.0 377 7148
r 6.018812 0 7 tcp 1040 ------- 0 4.1 7.0 378 7150
r 6.019644 0 7 tcp 1040 ------- 0 4.1 7.0 379 7152
r 6.020476 0 7 tcp 1040 ------- 0 4.1 7.0 380 7154
r 6.021308 0 7 tcp 1040 ------- 0 4.1 7.0 381 7156
r 6.02214 0 7 tcp 1040 ------- 0 4.1 7.0 382 7160
r 6.022972 0 7 tcp 1040 ------- 0 4.1 7.0 383 7162
r 6.023804 0 7 tcp 1040 ------- 0 4.1 7.0 384 7164
r 6.024636 0 7 tcp 1040 ------- 0 4.1 7.0 385 7166
r 6.025468 0 7 tcp 1040 ------- 0 4.1 7.0 386 7170
r 6.0263 0 7 tcp 1040 ------- 0 4.1 7.0 387 7172
r 6.027132 0 7 tcp 1040 ------- 0 4.1 7.0 388 7174
r 6.027964 0 7 tcp 1040 ------- 0 4.1 7.0 389 7176
r 6.028796 0 7 tcp 1040 ------- 0 4.1 7.0 390 7178
r 6.046268 0 7 tcp 1040 ------- 0 4.1 7.0 391 7220
r 6.0471 0 7 tcp 1040 ------- 0 4.1 7.0 392 7222
r 6.047932 0 7 tcp 1040 ------- 0 4.1 7.0 393 7224
r 6.048764 0 7 tcp 1040 ------- 0 4.1 7.0 394 7228
r 6.049596 0 7 tcp 1040 ------- 0 4.1 7.0 395 7230
r 6.050428 0 7 tcp 1040 ------- 0 4.1 7.0 396 7232
r 6.05126 0 7 tcp 1040 ------- 0 4.1 7.0 397 7234
r 6.052092 0 7 tcp 1040 ------- 0 4.1 7.0 398 7238
r 6.052924 0 7 tcp 1040 ------- 0 4.1 7.0 399 7240
r 6.053756 0 7 tcp 1040 ------- 0 4.1 7.0 400 7242
r 6.054588 0 7 tcp 1040 ------- 0 4.1 7.0 401 7244
r 6.05542 0 7 tcp 1040 ------- 0 4.1 7.0 402 7246
r 6.056252 0 7 tcp 1040 ------- 0 4.1 7.0 403 7248
r 6.057084 0 7 tcp 1040 ------- 0 4.1 7.0 404 7250
r 6.057916 0 7 tcp 1040 ------- 0 4.1 7.0 405 7252
r 6.058748 0 7 tcp 1040 ------- 0 4.1 7.0 406 7254
r 6.05958 0 7 tcp 1040 ------- 0 4.1 7.0 407 7256
r 6.060412 0 7 tcp 1040 ------- 0 4.1 7.0 408 7258
r 6.061244 0 7 tcp 1040 ------- 0 4.1 7.0 409 7261
r 6.062076 0 7 tcp 1040 ------- 0 4.1 7.0 410 7262
r 6.079548 0 7 tcp 1040 ------- 0 4.1 7.0 411 7310
r 6.08038 0 7 tcp 1040 ------- 0 4.1 7.0 412 7312
r 6.081212 0 7 tcp 1040 ------- 0 4.1 7.0 413 7314
r 6.082044 0 7 tcp 1040 ------- 0 4.1 7.0 414 7317
r 6.082876 0 7 tcp 1040 ------- 0 4.1 7.0 415 7318
r 6.083708 0 7 tcp 1040 ------- 0 4.1 7.0 416 7320
r 6.08454 0 7 tcp 1040 ------- 0 4.1 7.0 417 7322
r 6.085372 0 7 tcp 1040 ------- 0 4.1 7.0 418 7324
r 6.086204 0 7 tcp 1040 ------- 0 4.1 7.0 419 7326
r 6.087036 0 7 tcp 1040 ------- 0 4.1 7.0 420 7328
r 6.087868 0 7 tcp 1040 ------- 0 4.1 7.0 421 7331
r 6.0887 0 7 tcp 1040 ------- 0 4.1 7.0 422 7332
r 6.089532 0 7 tcp 1040 ------- 0 4.1 7.0 423 7334
r 6.090364 0 7 tcp 1040 ------- 0 4.1 7.0 424 7336
r 6.091196 0 7 tcp 1040 ------- 0 4.1 7.0 425 7339
r 6.092028 0 7 tcp 1040 ------- 0 4.1 7.0 426 7340
r 6.09286 0 7 tcp 1040 ------- 0 4.1 7.0 427 7342
r 6.093692 0 7 tcp 1040 ------- 0 4.1 7.0 428 7344
r 6.094524 0 7 tcp 1040 ------- 0 4.1 7.0 429 7346
r 6.095356 0 7 tcp 1040 ------- 0 4.1 7.0 430 7348
r 6.112828 0 7 tcp 1040 ------- 0 4.1 7.0 431 7396
r 6.11366 0 7 tcp 1040 ------- 0 4.1 7.0 432 7398
r 6.114492 0 7 tcp 1040 ------- 0 4.1 7.0 433 7401
r 6.115324 0 7 tcp 1040 ------- 0 4.1 7.0 434 7402
r 6.116156 0 7 tcp 1040 ------- 0 4.1 7.0 435 7404
r 6.116988 0 7 tcp 1040 ------- 0 4.1 7.0 436 7406
r 6.11782 0 7 tcp 1040 ------- 0 4.1 7.0 437 7409
r 6.118652 0 7 tcp 1040 ------- 0 4.1 7.0 438 7410
r 6.119484 0 7 tcp 1040 ------- 0 4.1 7.0 439 7412
r 6.120316 0 7 tcp 1040 ------- 0 4.1 7.0 440 7414
r 6.121148 0 7 tcp 1040 ------- 0 4.1 7.0 441 7416
r 6.12198 0 7 tcp 1040 ------- 0 4.1 7.0 442 7418
r 6.122812 0 7 tcp 1040 ------- 0 4.1 7.0 443 7420
r 6.123644 0 7 tcp 1040 ------- 0 4.1 7.0 444 7424
r 6.124476 0 7 tcp 1040 ------- 0 4.1 7.0 445 7426
r 6.125308 0 7 tcp 1040 ------- 0 4.1 7.0 446 7428
r 6.12614 0 7 tcp 1040 ------- 0 4.1 7.0 447 7430
r 6.126972 0 7 tcp 1040 ------- 0 4.1 7.0 448 7432
r 6.127804 0 7 tcp 1040 ------- 0 4.1 7.0 449 7434
r 6.128636 0 7 tcp 1040 ------- 0 4.1 7.0 450 7436
r 6.146108 0 7 tcp 1040 ------- 0 4.1 7.0 451 7482
r 6.14694 0 7 tcp 1040 ------- 0 4.1 7.0 452 7484
r 6.147772 0 7 tcp 1040 ------- 0 4.1 7.0 453 7486
r 6.148604 0 7 tcp 1040 ------- 0 4.1 7.0 454 7488
r 6.149436 0 7 tcp 1040 ------- 0 4.1 7.0 455 7490
r 6.150268 0 7 tcp 1040 ------- 0 4.1 7.0 456 7494
r 6.1511 0 7 tcp 1040 ------- 0 4.1 7.0 457 7496
r 6.151932 0 7 tcp 1040 ------- 0 4.1 7.0 458 7498
r 6.152764 0 7 tcp 1040 ------- 0 4.1 7.0 459 7500
r 6.153596 0 7 tcp 1040 ------- 0 4.1 7.0 460 7502
r 6.154428 0 7 tcp 1040 ------- 0 4.1 7.0 461 7504
r 6.15526 0 7 tcp 1040 ------- 0 4.1 7.0 462 7506
r 6.156092 0 7 tcp 1040 ------- 0 4.1 7.0 463 7510
r 6.156924 0 7 tcp 1040 ------- 0 4.1 7.0 464 7512
r 6.157756 0 7 tcp 1040 ------- 0 4.1 7.0 465 7514
r 6.158588 0 7 tcp 1040 ------- 0 4.1 7.0 466 7516
r 6.15942 0 7 tcp 1040 ------- 0 4.1 7.0 467 7520
r 6.160252 0 7 tcp 1040 ------- 0 4.1 7.0 468 7522
r 6.161084 0 7 tcp 1040 ------- 0 4.1 7.0 469 7524
r 6.161916 0 7 tcp 1040 ------- 0 4.1 7.0 470 7526
r 6.179388 0 7 tcp 1040 ------- 0 4.1 7.0 471 7570
r 6.18022 0 7 tcp 1040 ------- 0 4.1 7.0 472 7572
r 6.181052 0 7 tcp 1040 ------- 0 4.1 7.0 473 7574
r 6.181884 0 7 tcp 1040 ------- 0 4.1 7.0 474 7576
r 6.182716 0 7 tcp 1040 ------- 0 4.1 7.0 475 7580
r 6.183548 0 7 tcp 1040 ------- 0 4.1 7.0 476 7582
r 6.18438 0 7 tcp 1040 ------- 0 4.1 7.0 477 7584
r 6.185212 0 7 tcp 1040 ------- 0 4.1 7.0 478 7586
r 6.186044 0 7 tcp 1040 ------- 0 4.1 7.0 479 7590
r 6.186876 0 7 tcp 1040 ------- 0 4.1 7.0 480 7592
r 6.187708 0 7 tcp 1040 ------- 0 4.1 7.0 481 7594
r 6.18854 0 7 tcp 1040 ------- 0 4.1 7.0 482 7596
r 6.189372 0 7 tcp 1040 ------- 0 4.1 7.0 483 7599
r 6.190204 0 7 tcp 1040 ------- 0 4.1 7.0 484 7600
r 6.191036 0 7 tcp 1040 ------- 0 4.1 7.0 485 7602
r 6.191868 0 7 tcp 1040 ------- 0 4.1 7.0 486 7604
r 6.1927 0 7 tcp 1040 ------- 0 4.1 7.0 487 7606
r 6.193532 0 7 tcp 1040 ------- 0 4.1 7.0 488 7608
r 6.194364 0 7 tcp 1040 ------- 0 4.1 7.0 489 7610
r 6.195196 0 7 tcp 1040 ------- 0 4.1 7.0 490 7613
r 6.212668 0 7 tcp 1040 ------- 0 4.1 7.0 491 7660
r 6.2135 0 7 tcp 1040 ------- 0 4.1 7.0 492 7662
r 6.214332 0 7 tcp 1040 ------- 0 4.1 7.0 493 7664
r 6.215164 0 7 tcp 1040 ------- 0 4.1 7.0 494 7666
r 6.215996 0 7 tcp 1040 ------- 0 4.1 7.0 495 7669
r 6.216828 0 7 tcp 1040 ------- 0 4.1 7.0 496 7670
r 6.21766 0 7 tcp 1040 ------- 0 4.1 7.0 497 7672
r 6.218492 0 7 tcp 1040 ------- 0 4.1 7.0 498 7674
r 6.219324 0 7 tcp 1040 ------- 0 4.1 7.0 499 7676
r 6.220156 0 7 tcp 1040 ------- 0 4.1 7.0 500 7678
r 6.220988 0 7 tcp 1040 ------- 0 4.1 7.0 501 7680
r 6.22182 0 7 tcp 1040 ------- 0 4.1 7.0 502 7683
r 6.222652 0 7 tcp 1040 ------- 0 4.1 7.0 503 7684
r 6.223484 0 7 tcp 1040 ------- 0 4.1 7.0 504 7686
r 6.224316 0 7 tcp 1040 ------- 0 4.1 7.0 505 7689
r 6.225148 0 7 tcp 1040 ------- 0 4.1 7.0 506 7691
r 6.22598 0 7 tcp 1040 ------- 0 4.1 7.0 507 7692
r 6.226812 0 7 tcp 1040 ------- 0 4.1 7.0 508 7694
r 6.227644 0 7 tcp 1040 ------- 0 4.1 7.0 509 7696
r 6.228476 0 7 tcp 1040 ------- 0 4.1 7.0 510 7698
r 6.245948 0 7 tcp 1040 ------- 0 4.1 7.0 511 7746
r 6.24678 0 7 tcp 1040 ------- 0 4.1 7.0 512 7748
r 6.247612 0 7 tcp 1040 ------- 0 4.1 7.0 513 7750
r 6.248444 0 7 tcp 1040 ------- 0 4.1 7.0 514 7753
r 6.249276 0 7 tcp 1040 ------- 0 4.1 7.0 515 7754
r 6.250108 0 7 tcp 1040 ------- 0 4.1 7.0 516 7756
r 6.25094 0 7 tcp 1040 ------- 0 4.1 7.0 517 7758
r 6.251772 0 7 tcp 1040 ------- 0 4.1 7.0 518 7761
r 6.252604 0 7 tcp 1040 ------- 0 4.1 7.0 519 7762
r 6.253436 0 7 tcp 1040 ------- 0 4.1 7.0 520 7764
r 6.254268 0 7 tcp 1040 ------- 0 4.1 7.0 521 7766
r 6.2551 0 7 tcp 1040 ------- 0 4.1 7.0 522 7768
r 6.255932 0 7 tcp 1040 ------- 0 4.1 7.0 523 7770
r 6.256764 0 7 tcp 1040 ------- 0 4.1 7.0 524 7772
r 6.257596 0 7 tcp 1040 ------- 0 4.1 7.0 525 7776
r 6.258428 0 7 tcp 1040 ------- 0 4.1 7.0 526 7778
r 6.25926 0 7 tcp 1040 ------- 0 4.1 7.0 527 7780
r 6.260092 0 7 tcp 1040 ------- 0 4.1 7.0 528 7782
r 6.260924 0 7 tcp 1040 ------- 0 4.1 7.0 529 7784
r 6.261756 0 7 tcp 1040 ------- 0 4.1 7.0 530 7786
r 6.279228 0 7 tcp 1040 ------- 0 4.1 7.0 531 7832
r 6.28006 0 7 tcp 1040 ------- 0 4.1 7.0 532 7834
r 6.280892 0 7 tcp 1040 ------- 0 4.1 7.0 533 7836
r 6.281724 0 7 tcp 1040 ------- 0 4.1 7.0 534 7838
r 6.282556 0 7 tcp 1040 ------- 0 4.1 7.0 535 7840
r 6.283388 0 7 tcp 1040 ------- 0 4.1 7.0 536 7842
r 6.28422 0 7 tcp 1040 ------- 0 4.1 7.0 537 7846
r 6.285052 0 7 tcp 1040 ------- 0 4.1 7.0 538 7848
r 6.285884 0 7 tcp 1040 ------- 0 4.1 7.0 539 7850
r 6.286716 0 7 tcp 1040 ------- 0 4.1 7.0 540 7852
r 6.28758 0 7 tcp 1040 ------- 0 4.1 7.0 541 7855
r 6.288412 0 7 tcp 1040 ------- 0 4.1 7.0 542 7857
r 6.289244 0 7 tcp 1040 ------- 0 4.1 7.0 543 7859
r 6.290076 0 7 tcp 1040 ------- 0 4.1 7.0 544 7863
r 6.290908 0 7 tcp 1040 ------- 0 4.1 7.0 545 7865
r 6.29174 0 7 tcp 1040 ------- 0 4.1 7.0 546 7867
r 6.292572 0 7 tcp 1040 ------- 0 4.1 7.0 547 7869
r 6.293404 0 7 tcp 1040 ------- 0 4.1 7.0 548 7873
r 6.294236 0 7 tcp 1040 ------- 0 4.1 7.0 549 7875
r 6.295068 0 7 tcp 1040 ------- 0 4.1 7.0 550 7877
r 6.31254 0 7 tcp 1040 ------- 0 4.1 7.0 551 7924
r 6.313372 0 7 tcp 1040 ------- 0 4.1 7.0 552 7926
r 6.314204 0 7 tcp 1040 ------- 0 4.1 7.0 553 7928
r 6.315036 0 7 tcp 1040 ------- 0 4.1 7.0 554 7930
r 6.315868 0 7 tcp 1040 ------- 0 4.1 7.0 555 7932
r 6.3167 0 7 tcp 1040 ------- 0 4.1 7.0 556 7936
r 6.317532 0 7 tcp 1040 ------- 0 4.1 7.0 557 7938
r 6.318364 0 7 tcp 1040 ------- 0 4.1 7.0 558 7940
r 6.319196 0 7 tcp 1040 ------- 0 4.1 7.0 559 7942
r 6.321692 0 7 tcp 1040 ------- 0 4.1 7.0 560 7948
r 6.322524 0 7 tcp 1040 ------- 0 4.1 7.0 561 7952
r 6.323356 0 7 tcp 1040 ------- 0 4.1 7.0 562 7953
r 6.324188 0 7 tcp 1040 ------- 0 4.1 7.0 563 7954
r 6.32502 0 7 tcp 1040 ------- 0 4.1 7.0 564 7957
r 6.325852 0 7 tcp 1040 ------- 0 4.1 7.0 565 7958
r 6.326684 0 7 tcp 1040 ------- 0 4.1 7.0 566 7960
r 6.327516 0 7 tcp 1040 ------- 0 4.1 7.0 567 7962
r 6.328348 0 7 tcp 1040 ------- 0 4.1 7.0 568 7964
r 6.32918 0 7 tcp 1040 ------- 0 4.1 7.0 569 7966
r 6.330012 0 7 tcp 1040 ------- 0 4.1 7.0 570 7968
r 6.347484 0 7 tcp 1040 ------- 0 4.1 7.0 571 8016
r 6.348316 0 7 tcp 1040 ------- 0 4.1 7.0 572 8020
r 6.349148 0 7 tcp 1040 ------- 0 4.1 7.0 573 8022
r 6.34998 0 7 tcp 1040 ------- 0 4.1 7.0 574 8026
r 6.350812 0 7 tcp 1040 ------- 0 4.1 7.0 575 8027
r 6.351644 0 7 tcp 1040 ------- 0 4.1 7.0 576 8029
r 6.352476 0 7 tcp 1040 ------- 0 4.1 7.0 577 8030
r 6.353308 0 7 tcp 1040 ------- 0 4.1 7.0 578 8032
r 6.35414 0 7 tcp 1040 ------- 0 4.1 7.0 579 8034
r 6.3583 0 7 tcp 1040 ------- 0 4.1 7.0 580 8042
r 6.359132 0 7 tcp 1040 ------- 0 4.1 7.0 581 8045
r 6.359964 0 7 tcp 1040 ------- 0 4.1 7.0 582 8046
r 6.360796 0 7 tcp 1040 ------- 0 4.1 7.0 583 8048
r 6.361628 0 7 tcp 1040 ------- 0 4.1 7.0 584 8051
r 6.36246 0 7 tcp 1040 ------- 0 4.1 7.0 585 8053
r 6.363292 0 7 tcp 1040 ------- 0 4.1 7.0 586 8054
r 6.364124 0 7 tcp 1040 ------- 0 4.1 7.0 587 8056
r 6.364956 0 7 tcp 1040 ------- 0 4.1 7.0 588 8058
r 6.365788 0 7 tcp 1040 ------- 0 4.1 7.0 589 8060
r 6.36662 0 7 tcp 1040 ------- 0 4.1 7.0 590 8064
r 6.384092 0 7 tcp 1040 ------- 0 4.1 7.0 591 8112
r 6.384924 0 7 tcp 1040 ------- 0 4.1 7.0 592 8114