r 0.111078 0 6 tcp 40 ------- 0 4.0 6.0 0 0
r 0.135207 0 6 tcp 1040 ------- 0 4.0 6.0 1 10
r 0.136039 0 6 tcp 1040 ------- 0 4.0 6.0 2 11
r 0.159336 0 6 tcp 1040 ------- 0 4.0 6.0 3 30
r 0.160168 0 6 tcp 1040 ------- 0 4.0 6.0 4 31
r 0.161 0 6 tcp 1040 ------- 0 4.0 6.0 5 32
r 0.161832 0 6 tcp 1040 ------- 0 4.0 6.0 6 33
r 0.183465 0 6 tcp 1040 ------- 0 4.0 6.0 7 64
r 0.184297 0 6 tcp 1040 ------- 0 4.0 6.0 8 65
r 0.185129 0 6 tcp 1040 ------- 0 4.0 6.0 9 67
r 0.185961 0 6 tcp 1040 ------- 0 4.0 6.0 10 68
r 0.186793 0 6 tcp 1040 ------- 0 4.0 6.0 11 70
r 0.187625 0 6 tcp 1040 ------- 0 4.0 6.0 12 71
r 0.188457 0 6 tcp 1040 ------- 0 4.0 6.0 13 73
r 0.189289 0 6 tcp 1040 ------- 0 4.0 6.0 14 74
r 0.216745 0 6 tcp 1040 ------- 0 4.0 6.0 15 124
r 0.217577 0 6 tcp 1040 ------- 0 4.0 6.0 16 125
r 0.218409 0 6 tcp 1040 ------- 0 4.0 6.0 17 127
r 0.219241 0 6 tcp 1040 ------- 0 4.0 6.0 18 128
r 0.220073 0 6 tcp 1040 ------- 0 4.0 6.0 19 130
r 0.220905 0 6 tcp 1040 ------- 0 4.0 6.0 20 131
r 0.221737 0 6 tcp 1040 ------- 0 4.0 6.0 21 133
r 0.222569 0 6 tcp 1040 ------- 0 4.0 6.0 22 134
r 0.223401 0 6 tcp 1040 ------- 0 4.0 6.0 23 136
r 0.224233 0 6 tcp 1040 ------- 0 4.0 6.0 24 137
r 0.225065 0 6 tcp 1040 ------- 0 4.0 6.0 25 139
r 0.225897 0 6 tcp 1040 ------- 0 4.0 6.0 26 140
r 0.226729 0 6 tcp 1040 ------- 0 4.0 6.0 27 142
r 0.227561 0 6 tcp 1040 ------- 0 4.0 6.0 28 143
r 0.228393 0 6 tcp 1040 ------- 0 4.0 6.0 29 145
r 0.229225 0 6 tcp 1040 ------- 0 4.0 6.0 30 146
r 0.281641 0 6 tcp 1040 ------- 0 4.0 6.0 31 244
r 0.282473 0 6 tcp 1040 ------- 0 4.0 6.0 33 247
r 0.283305 0 6 tcp 1040 ------- 0 4.0 6.0 35 250
r 0.284137 0 6 tcp 1040 ------- 0 4.0 6.0 37 253
r 0.284969 0 6 tcp 1040 ------- 0 4.0 6.0 39 256
r 0.285801 0 6 tcp 1040 ------- 0 4.0 6.0 40 258
r 0.286633 0 6 tcp 1040 ------- 0 4.0 6.0 41 260
r 0.287465 0 6 tcp 1040 ------- 0 4.0 6.0 42 262
r 0.288297 0 6 tcp 1040 ------- 0 4.0 6.0 43 264
r 0.289129 0 6 tcp 1040 ------- 0 4.0 6.0 44 266
r 0.289961 0 6 tcp 1040 ------- 0 4.0 6.0 45 268
r 0.290793 0 6 tcp 1040 ------- 0 4.0 6.0 46 270
r 0.291625 0 6 tcp 1040 ------- 0 4.0 6.0 47 272
r 0.292457 0 6 tcp 1040 ------- 0 4.0 6.0 48 274
r 0.293289 0 6 tcp 1040 ------- 0 4.0 6.0 49 276
r 0.294121 0 6 tcp 1040 ------- 0 4.0 6.0 50 278
r 0.345705 0 6 tcp 1040 ------- 0 4.0 6.0 51 419
r 0.346537 0 6 tcp 1040 ---A--- 0 4.0 6.0 32 423
r 0.370666 0 6 tcp 1040 ------- 0 4.0 6.0 34 499
r 0.371498 0 6 tcp 1040 ------- 0 4.0 6.0 35 500
r 0.394794 0 6 tcp 1040 ------- 0 4.0 6.0 36 518
r 0.395626 0 6 tcp 1040 ------- 0 4.0 6.0 37 519
r 0.396458 0 6 tcp 1040 ------- 0 4.0 6.0 38 520
r 0.39729 0 6 tcp 1040 ------- 0 4.0 6.0 39 521
r 0.418923 0 6 tcp 1040 ------- 0 4.0 6.0 40 554
r 0.419755 0 6 tcp 1040 ------- 0 4.0 6.0 41 555
r 0.420587 0 6 tcp 1040 ------- 0 4.0 6.0 42 557
r 0.421419 0 6 tcp 1040 ------- 0 4.0 6.0 52 559
r 0.422251 0 6 tcp 1040 ------- 0 4.0 6.0 53 560
r 0.423083 0 6 tcp 1040 ------- 0 4.0 6.0 54 561
r 0.423915 0 6 tcp 1040 ------- 0 4.0 6.0 55 562
r 0.424747 0 6 tcp 1040 ------- 0 4.0 6.0 56 563
r 0.425579 0 6 tcp 1040 ------- 0 4.0 6.0 57 565
r 0.453867 0 6 tcp 1040 ------- 0 4.0 6.0 58 616
r 0.454699 0 6 tcp 1040 ------- 0 4.0 6.0 59 621
r 0.455531 0 6 tcp 1040 ------- 0 4.0 6.0 60 622
r 0.456363 0 6 tcp 1040 ------- 0 4.0 6.0 61 624
r 0.457195 0 6 tcp 1040 ------- 0 4.0 6.0 62 625
r 0.458027 0 6 tcp 1040 ------- 0 4.0 6.0 63 627
r 0.458859 0 6 tcp 1040 ------- 0 4.0 6.0 64 628
r 0.459691 0 6 tcp 1040 ------- 0 4.0 6.0 65 630
r 0.460523 0 6 tcp 1040 ------- 0 4.0 6.0 66 631
r 0.461355 0 6 tcp 1040 ------- 0 4.0 6.0 67 633
r 0.497131 0 6 tcp 1040 ------- 0 4.0 6.0 68 710
r 0.497963 0 6 tcp 1040 ------- 0 4.0 6.0 69 712
r 0.498795 0 6 tcp 1040 ------- 0 4.0 6.0 70 714
r 0.499627 0 6 tcp 1040 ------- 0 4.0 6.0 71 716
r 0.500459 0 6 tcp 1040 ------- 0 4.0 6.0 72 718
r 0.501291 0 6 tcp 1040 ------- 0 4.0 6.0 73 720
r 0.502123 0 6 tcp 1040 ------- 0 4.0 6.0 74 722
r 0.502955 0 6 tcp 1040 ------- 0 4.0 6.0 75 724
r 0.503787 0 6 tcp 1040 ------- 0 4.0 6.0 76 726
r 0.504619 0 6 tcp 1040 ------- 0 4.0 6.0 77 728
r 0.505451 0 6 tcp 1040 ------- 0 4.0 6.0 78 729
r 0.542059 0 6 tcp 1040 ------- 0 4.0 6.0 79 816
r 0.542891 0 6 tcp 1040 ------- 0 4.0 6.0 80 818
r 0.543723 0 6 tcp 1040 ------- 0 4.0 6.0 81 820
r 0.544555 0 6 tcp 1040 ------- 0 4.0 6.0 82 822
r 0.545387 0 6 tcp 1040 ------- 0 4.0 6.0 83 824
r 0.546219 0 6 tcp 1040 ------- 0 4.0 6.0 84 826
r 0.547051 0 6 tcp 1040 ------- 0 4.0 6.0 85 828
r 0.547883 0 6 tcp 1040 ------- 0 4.0 6.0 86 830
r 0.548715 0 6 tcp 1040 ------- 0 4.0 6.0 87 832
r 0.549547 0 6 tcp 1040 ------- 0 4.0 6.0 88 834
r 0.550379 0 6 tcp 1040 ------- 0 4.0 6.0 89 836
r 0.551211 0 6 tcp 1040 ------- 0 4.0 6.0 90 837
r 0.591147 0 6 tcp 1040 ------- 0 4.0 6.0 91 929
r 0.591979 0 6 tcp 1040 ------- 0 4.0 6.0 92 931
r 0.592811 0 6 tcp 1040 ------- 0 4.0 6.0 93 933
r 0.593643 0 6 tcp 1040 ------- 0 4.0 6.0 94 935
r 0.594475 0 6 tcp 1040 ------- 0 4.0 6.0 95 937
r 0.595307 0 6 tcp 1040 ------- 0 4.0 6.0 96 939
r 0.596139 0 6 tcp 1040 ------- 0 4.0 6.0 97 941
r 0.596971 0 6 tcp 1040 ------- 0 4.0 6.0 98 943
r 0.597803 0 6 tcp 1040 ------- 0 4.0 6.0 99 945
r 0.598635 0 6 tcp 1040 ------- 0 4.0 6.0 100 947
r 0.599467 0 6 tcp 1040 ------- 0 4.0 6.0 101 949
r 0.600299 0 6 tcp 1040 ------- 0 4.0 6.0 102 951
r 0.641067 0 6 tcp 1040 ------- 0 4.0 6.0 103 1048
r 0.641899 0 6 tcp 1040 ------- 0 4.0 6.0 104 1049
r 0.642731 0 6 tcp 1040 ------- 0 4.0 6.0 105 1051
r 0.643563 0 6 tcp 1040 ------- 0 4.0 6.0 106 1053
r 0.644395 0 6 tcp 1040 ------- 0 4.0 6.0 107 1055
r 0.645227 0 6 tcp 1040 ------- 0 4.0 6.0 108 1057
r 0.646059 0 6 tcp 1040 ------- 0 4.0 6.0 109 1059
r 0.646891 0 6 tcp 1040 ------- 0 4.0 6.0 110 1061
r 0.647723 0 6 tcp 1040 ------- 0 4.0 6.0 111 1063
r 0.648555 0 6 tcp 1040 ------- 0 4.0 6.0 112 1065
r 0.649387 0 6 tcp 1040 ------- 0 4.0 6.0 113 1067
r 0.650219 0 6 tcp 1040 ------- 0 4.0 6.0 114 1069
r 0.651051 0 6 tcp 1040 ------- 0 4.0 6.0 115 1071
r 0.695147 0 6 tcp 1040 ------- 0 4.0 6.0 116 1173
r 0.695979 0 6 tcp 1040 ------- 0 4.0 6.0 117 1175
r 0.696811 0 6 tcp 1040 ------- 0 4.0 6.0 118 1176
r 0.697643 0 6 tcp 1040 ------- 0 4.0 6.0 119 1178
r 0.698475 0 6 tcp 1040 ------- 0 4.0 6.0 120 1180
r 0.699307 0 6 tcp 1040 ------- 0 4.0 6.0 121 1182
r 0.700139 0 6 tcp 1040 ------- 0 4.0 6.0 122 1184
r 0.700971 0 6 tcp 1040 ------- 0 4.0 6.0 123 1186
r 0.701803 0 6 tcp 1040 ------- 0 4.0 6.0 124 1188
r 0.702635 0 6 tcp 1040 ------- 0 4.0 6.0 125 1190
r 0.703467 0 6 tcp 1040 ------- 0 4.0 6.0 126 1192
r 0.704299 0 6 tcp 1040 ------- 0 4.0 6.0 127 1194
r 0.705131 0 6 tcp 1040 ------- 0 4.0 6.0 128 1196
r 0.705963 0 6 tcp 1040 ------- 0 4.0 6.0 129 1198
r 0.753387 0 6 tcp 1040 ------- 0 4.0 6.0 130 1308
r 0.754219 0 6 tcp 1040 ------- 0 4.0 6.0 131 1310
r 0.755051 0 6 tcp 1040 ------- 0 4.0 6.0 132 1312
r 0.755883 0 6 tcp 1040 ------- 0 4.0 6.0 133 1314
r 0.756715 0 6 tcp 1040 ------- 0 4.0 6.0 134 1315
r 0.757547 0 6 tcp 1040 ------- 0 4.0 6.0 135 1317
r 0.758379 0 6 tcp 1040 ------- 0 4.0 6.0 136 1319
r 0.759211 0 6 tcp 1040 ------- 0 4.0 6.0 137 1321
r 0.760043 0 6 tcp 1040 ------- 0 4.0 6.0 138 1323
r 0.760875 0 6 tcp 1040 ------- 0 4.0 6.0 139 1325
r 0.761707 0 6 tcp 1040 ------- 0 4.0 6.0 140 1327
r 0.762539 0 6 tcp 1040 ------- 0 4.0 6.0 141 1329
r 0.763371 0 6 tcp 1040 ------- 0 4.0 6.0 142 1331
r 0.764203 0 6 tcp 1040 ------- 0 4.0 6.0 143 1333
r 0.765035 0 6 tcp 1040 ------- 0 4.0 6.0 144 1335
r 0.815787 0 6 tcp 1040 ------- 0 4.0 6.0 145 1453
r 0.816619 0 6 tcp 1040 ------- 0 4.0 6.0 146 1455
r 0.817451 0 6 tcp 1040 ------- 0 4.0 6.0 147 1457
r 0.818283 0 6 tcp 1040 ------- 0 4.0 6.0 148 1459
r 0.819115 0 6 tcp 1040 ------- 0 4.0 6.0 149 1461
r 0.819947 0 6 tcp 1040 ------- 0 4.0 6.0 150 1462
r 0.820779 0 6 tcp 1040 ------- 0 4.0 6.0 151 1464
r 0.821611 0 6 tcp 1040 ------- 0 4.0 6.0 152 1466
r 0.822443 0 6 tcp 1040 ------- 0 4.0 6.0 153 1468
r 0.823275 0 6 tcp 1040 ------- 0 4.0 6.0 154 1470
r 0.824107 0 6 tcp 1040 ------- 0 4.0 6.0 155 1472
r 0.824939 0 6 tcp 1040 ------- 0 4.0 6.0 156 1474
r 0.825771 0 6 tcp 1040 ------- 0 4.0 6.0 157 1476
r 0.826603 0 6 tcp 1040 ------- 0 4.0 6.0 158 1478
r 0.827435 0 6 tcp 1040 ------- 0 4.0 6.0 159 1480
r 0.828267 0 6 tcp 1040 ------- 0 4.0 6.0 160 1482
r 0.880683 0 6 tcp 1040 ------- 0 4.0 6.0 161 1608
r 0.881515 0 6 tcp 1040 ------- 0 4.0 6.0 162 1610
r 0.882347 0 6 tcp 1040 ------- 0 4.0 6.0 163 1612
r 0.883179 0 6 tcp 1040 ------- 0 4.0 6.0 164 1614
r 0.884011 0 6 tcp 1040 ------- 0 4.0 6.0 165 1616
r 0.884843 0 6 tcp 1040 ------- 0 4.0 6.0 166 1618
r 0.885675 0 6 tcp 1040 ------- 0 4.0 6.0 167 1620
r 0.886507 0 6 tcp 1040 ------- 0 4.0 6.0 169 1623
r 0.887339 0 6 tcp 1040 ------- 0 4.0 6.0 170 1625
r 0.888171 0 6 tcp 1040 ------- 0 4.0 6.0 171 1627
r 0.889003 0 6 tcp 1040 ------- 0 4.0 6.0 172 1629
r 0.889835 0 6 tcp 1040 ------- 0 4.0 6.0 173 1631
r 0.890667 0 6 tcp 1040 ------- 0 4.0 6.0 174 1633
r 0.891499 0 6 tcp 1040 ------- 0 4.0 6.0 175 1635
r 0.892331 0 6 tcp 1040 ------- 0 4.0 6.0 176 1637
r 0.893163 0 6 tcp 1040 ------- 0 4.0 6.0 177 1639
r 0.939755 0 6 tcp 1040 ------- 0 4.0 6.0 178 1760
r 0.940587 0 6 tcp 1040 ------- 0 4.0 6.0 179 1762
r 0.941419 0 6 tcp 1040 ------- 0 4.0 6.0 180 1764
r 0.942251 0 6 tcp 1040 ------- 0 4.0 6.0 181 1766
r 0.943083 0 6 tcp 1040 ------- 0 4.0 6.0 182 1768
r 0.943915 0 6 tcp 1040 ------- 0 4.0 6.0 183 1770
r 0.944747 0 6 tcp 1040 ------- 0 4.0 6.0 184 1772
r 0.945579 0 6 tcp 1040 ------- 0 4.0 6.0 185 1774
r 0.946411 0 6 tcp 1040 ------- 0 4.0 6.0 186 1776
r 0.947243 0 6 tcp 1040 ---A--- 0 4.0 6.0 168 1778
r 0.971372 0 6 tcp 1040 ------- 0 4.0 6.0 187 1874
r 0.972204 0 6 tcp 1040 ------- 0 4.0 6.0 188 1875
r 0.996332 0 6 tcp 1040 ------- 0 4.0 6.0 189 1903
r 0.997164 0 6 tcp 1040 ------- 0 4.0 6.0 190 1904
r 0.997996 0 6 tcp 1040 ------- 0 4.0 6.0 191 1905
r 0.998828 0 6 tcp 1040 ------- 0 4.0 6.0 192 1906
r 1.028781 0 6 tcp 1040 ------- 0 4.0 6.0 193 1949
r 1.029613 0 6 tcp 1040 ------- 0 4.0 6.0 194 1950
r 1.030445 0 6 tcp 1040 ------- 0 4.0 6.0 195 1951
r 1.031277 0 6 tcp 1040 ------- 0 4.0 6.0 196 1952
r 1.032109 0 6 tcp 1040 ------- 0 4.0 6.0 197 1953
r 1.032941 0 6 tcp 1040 ------- 0 4.0 6.0 198 1954
r 1.033773 0 6 tcp 1040 ------- 0 4.0 6.0 199 1955
r 1.034605 0 6 tcp 1040 ------- 0 4.0 6.0 200 1956
r 1.062061 0 6 tcp 1040 ------- 0 4.0 6.0 201 2023
r 1.062893 0 6 tcp 1040 ------- 0 4.0 6.0 202 2025
r 1.063725 0 6 tcp 1040 ------- 0 4.0 6.0 203 2027
r 1.064557 0 6 tcp 1040 ------- 0 4.0 6.0 204 2029
r 1.065389 0 6 tcp 1040 ------- 0 4.0 6.0 205 2031
r 1.066221 0 6 tcp 1040 ------- 0 4.0 6.0 206 2033
r 1.067053 0 6 tcp 1040 ------- 0 4.0 6.0 207 2035
r 1.067885 0 6 tcp 1040 ------- 0 4.0 6.0 208 2037
r 1.097005 0 6 tcp 1040 ------- 0 4.0 6.0 209 2105
r 1.097837 0 6 tcp 1040 ------- 0 4.0 6.0 210 2106
r 1.098669 0 6 tcp 1040 ------- 0 4.0 6.0 211 2108
r 1.099501 0 6 tcp 1040 ------- 0 4.0 6.0 212 2110
r 1.100333 0 6 tcp 1040 ------- 0 4.0 6.0 213 2112
r 1.101165 0 6 tcp 1040 ------- 0 4.0 6.0 214 2114
r 1.101997 0 6 tcp 1040 ------- 0 4.0 6.0 215 2116
r 1.102829 0 6 tcp 1040 ------- 0 4.0 6.0 216 2118
r 1.103661 0 6 tcp 1040 ------- 0 4.0 6.0 217 2120
r 1.136109 0 6 tcp 1040 ------- 0 4.0 6.0 218 2194
r 1.136941 0 6 tcp 1040 ------- 0 4.0 6.0 219 2196
r 1.137773 0 6 tcp 1040 ------- 0 4.0 6.0 220 2197
r 1.138605 0 6 tcp 1040 ------- 0 4.0 6.0 221 2199
r 1.139437 0 6 tcp 1040 ------- 0 4.0 6.0 222 2201
r 1.140269 0 6 tcp 1040 ------- 0 4.0 6.0 223 2203
r 1.141101 0 6 tcp 1040 ------- 0 4.0 6.0 224 2205
r 1.141933 0 6 tcp 1040 ------- 0 4.0 6.0 225 2207
r 1.142765 0 6 tcp 1040 ------- 0 4.0 6.0 226 2209
r 1.143597 0 6 tcp 1040 ------- 0 4.0 6.0 227 2211
r 1.179373 0 6 tcp 1040 ------- 0 4.0 6.0 228 2293
r 1.180205 0 6 tcp 1040 ------- 0 4.0 6.0 229 2295
r 1.181037 0 6 tcp 1040 ------- 0 4.0 6.0 230 2297
r 1.181869 0 6 tcp 1040 ------- 0 4.0 6.0 231 2299
r 1.182701 0 6 tcp 1040 ------- 0 4.0 6.0 232 2300
r 1.183533 0 6 tcp 1040 ------- 0 4.0 6.0 233 2302
r 1.184365 0 6 tcp 1040 ------- 0 4.0 6.0 234 2304
r 1.185197 0 6 tcp 1040 ------- 0 4.0 6.0 235 2306
r 1.186029 0 6 tcp 1040 ------- 0 4.0 6.0 236 2308
r 1.186861 0 6 tcp 1040 ------- 0 4.0 6.0 237 2310
r 1.187693 0 6 tcp 1040 ------- 0 4.0 6.0 238 2312
r 1.226797 0 6 tcp 1040 ------- 0 4.0 6.0 239 2402
r 1.227629 0 6 tcp 1040 ------- 0 4.0 6.0 240 2404
r 1.228461 0 6 tcp 1040 ------- 0 4.0 6.0 241 2406
r 1.229293 0 6 tcp 1040 ------- 0 4.0 6.0 242 2408
r 1.230125 0 6 tcp 1040 ------- 0 4.0 6.0 243 2410
r 1.230957 0 6 tcp 1040 ------- 0 4.0 6.0 244 2411
r 1.231789 0 6 tcp 1040 ------- 0 4.0 6.0 245 2413
r 1.232621 0 6 tcp 1040 ------- 0 4.0 6.0 246 2415
r 1.233453 0 6 tcp 1040 ------- 0 4.0 6.0 247 2417
r 1.234285 0 6 tcp 1040 ------- 0 4.0 6.0 248 2419
r 1.235117 0 6 tcp 1040 ------- 0 4.0 6.0 249 2421
r 1.235949 0 6 tcp 1040 ------- 0 4.0 6.0 250 2423
r 1.278381 0 6 tcp 1040 ------- 0 4.0 6.0 251 2521
r 1.279213 0 6 tcp 1040 ------- 0 4.0 6.0 252 2523
r 1.280045 0 6 tcp 1040 ------- 0 4.0 6.0 253 2525
r 1.280877 0 6 tcp 1040 ------- 0 4.0 6.0 254 2527
r 1.281709 0 6 tcp 1040 ------- 0 4.0 6.0 255 2529
r 1.282541 0 6 tcp 1040 ------- 0 4.0 6.0 256 2531
r 1.283373 0 6 tcp 1040 ------- 0 4.0 6.0 257 2533
r 1.284205 0 6 tcp 1040 ------- 0 4.0 6.0 258 2534
r 1.285037 0 6 tcp 1040 ------- 0 4.0 6.0 259 2536
r 1.285869 0 6 tcp 1040 ------- 0 4.0 6.0 260 2538
r 1.286701 0 6 tcp 1040 ------- 0 4.0 6.0 261 2540
r 1.287533 0 6 tcp 1040 ------- 0 4.0 6.0 262 2542
r 1.288365 0 6 tcp 1040 ------- 0 4.0 6.0 263 2544
r 1.334125 0 6 tcp 1040 ------- 0 4.0 6.0 264 2650
r 1.334957 0 6 tcp 1040 ------- 0 4.0 6.0 265 2652
r 1.335789 0 6 tcp 1040 ------- 0 4.0 6.0 266 2654
r 1.336621 0 6 tcp 1040 ------- 0 4.0 6.0 267 2656
r 1.337453 0 6 tcp 1040 ------- 0 4.0 6.0 268 2658
r 1.338285 0 6 tcp 1040 ------- 0 4.0 6.0 269 2660
r 1.339117 0 6 tcp 1040 ------- 0 4.0 6.0 270 2662
r 1.339949 0 6 tcp 1040 ------- 0 4.0 6.0 271 2664
r 1.340781 0 6 tcp 1040 ------- 0 4.0 6.0 272 2665
r 1.341613 0 6 tcp 1040 ------- 0 4.0 6.0 273 2667
r 1.342445 0 6 tcp 1040 ------- 0 4.0 6.0 274 2669
r 1.343277 0 6 tcp 1040 ------- 0 4.0 6.0 275 2671
r 1.344109 0 6 tcp 1040 ------- 0 4.0 6.0 276 2673
r 1.344941 0 6 tcp 1040 ------- 0 4.0 6.0 277 2675
r 1.394029 0 6 tcp 1040 ------- 0 4.0 6.0 278 2789
r 1.394861 0 6 tcp 1040 ------- 0 4.0 6.0 279 2791
r 1.395693 0 6 tcp 1040 ------- 0 4.0 6.0 280 2793
r 1.396525 0 6 tcp 1040 ------- 0 4.0 6.0 281 2795
r 1.397357 0 6 tcp 1040 ------- 0 4.0 6.0 282 2797
r 1.398189 0 6 tcp 1040 ------- 0 4.0 6.0 283 2799
r 1.399021 0 6 tcp 1040 ------- 0 4.0 6.0 284 2801
r 1.399853 0 6 tcp 1040 ------- 0 4.0 6.0 285 2803
r 1.400685 0 6 tcp 1040 ------- 0 4.0 6.0 286 2805
r 1.401517 0 6 tcp 1040 ------- 0 4.0 6.0 287 2807
r 1.402349 0 6 tcp 1040 ------- 0 4.0 6.0 288 2808
r 1.403181 0 6 tcp 1040 ------- 0 4.0 6.0 289 2810
r 1.404013 0 6 tcp 1040 ------- 0 4.0 6.0 290 2812
r 1.404845 0 6 tcp 1040 ------- 0 4.0 6.0 291 2814
r 1.405677 0 6 tcp 1040 ------- 0 4.0 6.0 292 2816
r 1.458093 0 6 tcp 1040 ------- 0 4.0 6.0 293 2938
r 1.458925 0 6 tcp 1040 ------- 0 4.0 6.0 294 2940
r 1.459757 0 6 tcp 1040 ------- 0 4.0 6.0 295 2942
r 1.460589 0 6 tcp 1040 ------- 0 4.0 6.0 296 2944
r 1.461421 0 6 tcp 1040 ------- 0 4.0 6.0 297 2946
r 1.462253 0 6 tcp 1040 ------- 0 4.0 6.0 298 2948
r 1.463085 0 6 tcp 1040 ------- 0 4.0 6.0 299 2950
r 1.463917 0 6 tcp 1040 ------- 0 4.0 6.0 300 2952
r 1.464749 0 6 tcp 1040 ------- 0 4.0 6.0 301 2954
r 1.465581 0 6 tcp 1040 ------- 0 4.0 6.0 302 2956
r 1.466413 0 6 tcp 1040 ------- 0 4.0 6.0 303 2958
r 1.467245 0 6 tcp 1040 ------- 0 4.0 6.0 304 2959
r 1.468077 0 6 tcp 1040 ------- 0 4.0 6.0 305 2961
r 1.468909 0 6 tcp 1040 ------- 0 4.0 6.0 306 2963
r 1.469741 0 6 tcp 1040 ------- 0 4.0 6.0 307 2965
r 1.470573 0 6 tcp 1040 ------- 0 4.0 6.0 308 2967
r 1.522989 0 6 tcp 1040 ------- 0 4.0 6.0 309 3097
r 1.523821 0 6 tcp 1040 ------- 0 4.0 6.0 310 3099
r 1.524653 0 6 tcp 1040 ------- 0 4.0 6.0 311 3101
r 1.525485 0 6 tcp 1040 ------- 0 4.0 6.0 312 3103
r 1.526317 0 6 tcp 1040 ------- 0 4.0 6.0 313 3105
r 1.527149 0 6 tcp 1040 ------- 0 4.0 6.0 314 3107
r 1.527981 0 6 tcp 1040 ------- 0 4.0 6.0 315 3109
r 1.528813 0 6 tcp 1040 ------- 0 4.0 6.0 316 3111
r 1.529645 0 6 tcp 1040 ------- 0 4.0 6.0 317 3113
r 1.530477 0 6 tcp 1040 ------- 0 4.0 6.0 318 3115
r 1.531309 0 6 tcp 1040 ------- 0 4.0 6.0 319 3117
r 1.532141 0 6 tcp 1040 ------- 0 4.0 6.0 320 3119
r 1.532973 0 6 tcp 1040 ------- 0 4.0 6.0 321 3121
r 1.533805 0 6 tcp 1040 ------- 0 4.0 6.0 323 3124
r 1.534637 0 6 tcp 1040 ------- 0 4.0 6.0 324 3126
r 1.535469 0 6 tcp 1040 ------- 0 4.0 6.0 325 3128
r 1.586221 0 6 tcp 1040 ------- 0 4.0 6.0 326 3252
r 1.587053 0 6 tcp 1040 ------- 0 4.0 6.0 327 3254
r 1.587885 0 6 tcp 1040 ------- 0 4.0 6.0 328 3256
r 1.588717 0 6 tcp 1040 ------- 0 4.0 6.0 329 3258
r 1.589549 0 6 tcp 1040 ------- 0 4.0 6.0 330 3260
r 1.590381 0 6 tcp 1040 ------- 0 4.0 6.0 331 3262
r 1.591213 0 6 tcp 1040 ------- 0 4.0 6.0 332 3264
r 1.592045 0 6 tcp 1040 ------- 0 4.0 6.0 333 3266
r 1.592877 0 6 tcp 1040 ------- 0 4.0 6.0 334 3268
r 1.593709 0 6 tcp 1040 ------- 0 4.0 6.0 335 3270
r 1.594541 0 6 tcp 1040 ------- 0 4.0 6.0 336 3272
r 1.595373 0 6 tcp 1040 ------- 0 4.0 6.0 337 3274
r 1.596205 0 6 tcp 1040 ------- 0 4.0 6.0 338 3276
r 1.597037 0 6 tcp 1040 ------- 0 4.0 6.0 339 3278
r 1.597869 0 6 tcp 1040 ------- 0 4.0 6.0 340 3280
r 1.598701 0 6 tcp 1040 ---A--- 0 4.0 6.0 322 3282
r 1.62283 0 6 tcp 1040 ------- 0 4.0 6.0 341 3361
r 1.623662 0 6 tcp 1040 ------- 0 4.0 6.0 342 3362
r 1.646958 0 6 tcp 1040 ------- 0 4.0 6.0 343 3394
r 1.64779 0 6 tcp 1040 ------- 0 4.0 6.0 344 3395
r 1.648622 0 6 tcp 1040 ------- 0 4.0 6.0 345 3397
r 1.649454 0 6 tcp 1040 ------- 0 4.0 6.0 346 3398
r 1.67691 0 6 tcp 1040 ------- 0 4.0 6.0 347 3448
r 1.677742 0 6 tcp 1040 ------- 0 4.0 6.0 348 3449
r 1.678574 0 6 tcp 1040 ------- 0 4.0 6.0 349 3451
r 1.679406 0 6 tcp 1040 ------- 0 4.0 6.0 350 3452
r 1.680238 0 6 tcp 1040 ------- 0 4.0 6.0 351 3454
r 1.68107 0 6 tcp 1040 ------- 0 4.0 6.0 352 3455
r 1.681902 0 6 tcp 1040 ------- 0 4.0 6.0 353 3457
r 1.682734 0 6 tcp 1040 ------- 0 4.0 6.0 354 3458
r 1.71019 0 6 tcp 1040 ------- 0 4.0 6.0 355 3524
r 1.711022 0 6 tcp 1040 ------- 0 4.0 6.0 356 3526
r 1.711854 0 6 tcp 1040 ------- 0 4.0 6.0 357 3528
r 1.712686 0 6 tcp 1040 ------- 0 4.0 6.0 358 3530
r 1.713518 0 6 tcp 1040 ------- 0 4.0 6.0 359 3532
r 1.71435 0 6 tcp 1040 ------- 0 4.0 6.0 360 3534
r 1.715182 0 6 tcp 1040 ------- 0 4.0 6.0 361 3536
r 1.716014 0 6 tcp 1040 ------- 0 4.0 6.0 362 3538
r 1.746798 0 6 tcp 1040 ------- 0 4.0 6.0 363 3608
r 1.74763 0 6 tcp 1040 ------- 0 4.0 6.0 364 3609
r 1.748462 0 6 tcp 1040 ------- 0 4.0 6.0 365 3611
r 1.749294 0 6 tcp 1040 ------- 0 4.0 6.0 366 3613
r 1.750126 0 6 tcp 1040 ------- 0 4.0 6.0 367 3615
r 1.750958 0 6 tcp 1040 ------- 0 4.0 6.0 368 3617
r 1.75179 0 6 tcp 1040 ------- 0 4.0 6.0 369 3619
r 1.752622 0 6 tcp 1040 ------- 0 4.0 6.0 370 3621
r 1.753454 0 6 tcp 1040 ------- 0 4.0 6.0 371 3623
r 1.787566 0 6 tcp 1040 ------- 0 4.0 6.0 372 3701
r 1.788398 0 6 tcp 1040 ------- 0 4.0 6.0 373 3703
r 1.78923 0 6 tcp 1040 ------- 0 4.0 6.0 374 3704
r 1.790062 0 6 tcp 1040 ------- 0 4.0 6.0 375 3706
r 1.790894 0 6 tcp 1040 ------- 0 4.0 6.0 376 3708
r 1.791726 0 6 tcp 1040 ------- 0 4.0 6.0 377 3710
r 1.792558 0 6 tcp 1040 ------- 0 4.0 6.0 378 3712
r 1.79339 0 6 tcp 1040 ------- 0 4.0 6.0 379 3714
r 1.794222 0 6 tcp 1040 ------- 0 4.0 6.0 380 3716
r 1.795054 0 6 tcp 1040 ------- 0 4.0 6.0 381 3718
r 1.832494 0 6 tcp 1040 ------- 0 4.0 6.0 382 3804
r 1.833326 0 6 tcp 1040 ------- 0 4.0 6.0 383 3806
r 1.834158 0 6 tcp 1040 ------- 0 4.0 6.0 384 3808
r 1.83499 0 6 tcp 1040 ------- 0 4.0 6.0 385 3810
r 1.835822 0 6 tcp 1040 ------- 0 4.0 6.0 386 3811
r 1.836654 0 6 tcp 1040 ------- 0 4.0 6.0 387 3813
r 1.837486 0 6 tcp 1040 ------- 0 4.0 6.0 388 3815
r 1.838318 0 6 tcp 1040 ------- 0 4.0 6.0 389 3817
r 1.83915 0 6 tcp 1040 ------- 0 4.0 6.0 390 3819
r 1.839982 0 6 tcp 1040 ------- 0 4.0 6.0 391 3821
r 1.840814 0 6 tcp 1040 ------- 0 4.0 6.0 392 3823
r 1.881582 0 6 tcp 1040 ------- 0 4.0 6.0 393 3917
r 1.882414 0 6 tcp 1040 ------- 0 4.0 6.0 394 3919
r 1.883246 0 6 tcp 1040 ------- 0 4.0 6.0 395 3921
r 1.884078 0 6 tcp 1040 ------- 0 4.0 6.0 396 3923
r 1.88491 0 6 tcp 1040 ------- 0 4.0 6.0 397 3925
r 1.885742 0 6 tcp 1040 ------- 0 4.0 6.0 398 3926
r 1.886574 0 6 tcp 1040 ------- 0 4.0 6.0 399 3928
r 1.887406 0 6 tcp 1040 ------- 0 4.0 6.0 400 3930
r 1.888238 0 6 tcp 1040 ------- 0 4.0 6.0 401 3932
r 1.88907 0 6 tcp 1040 ------- 0 4.0 6.0 402 3934
r 1.889902 0 6 tcp 1040 ------- 0 4.0 6.0 403 3936
r 1.890734 0 6 tcp 1040 ------- 0 4.0 6.0 404 3938
r 1.93483 0 6 tcp 1040 ------- 0 4.0 6.0 405 4040
r 1.935662 0 6 tcp 1040 ------- 0 4.0 6.0 406 4042
r 1.936494 0 6 tcp 1040 ------- 0 4.0 6.0 407 4044
r 1.937326 0 6 tcp 1040 ------- 0 4.0 6.0 408 4046
r 1.938158 0 6 tcp 1040 ------- 0 4.0 6.0 409 4048
r 1.93899 0 6 tcp 1040 ------- 0 4.0 6.0 410 4050
r 1.939822 0 6 tcp 1040 ------- 0 4.0 6.0 411 4052
r 1.940654 0 6 tcp 1040 ------- 0 4.0 6.0 412 4053
r 1.941486 0 6 tcp 1040 ------- 0 4.0 6.0 413 4055
r 1.942318 0 6 tcp 1040 ------- 0 4.0 6.0 414 4057
r 1.94315 0 6 tcp 1040 ------- 0 4.0 6.0 415 4059
r 1.943982 0 6 tcp 1040 ------- 0 4.0 6.0 416 4061
r 1.944814 0 6 tcp 1040 ------- 0 4.0 6.0 417 4063
r 1.992238 0 6 tcp 1040 ------- 0 4.0 6.0 418 4173
r 1.99307 0 6 tcp 1040 ------- 0 4.0 6.0 419 4175
r 1.993902 0 6 tcp 1040 ------- 0 4.0 6.0 420 4177
r 1.994734 0 6 tcp 1040 ------- 0 4.0 6.0 421 4179
r 1.995566 0 6 tcp 1040 ------- 0 4.0 6.0 422 4181
r 1.996398 0 6 tcp 1040 ------- 0 4.0 6.0 423 4183
r 1.99723 0 6 tcp 1040 ------- 0 4.0 6.0 424 4185
r 1.998062 0 6 tcp 1040 ------- 0 4.0 6.0 425 4187
r 1.998894 0 6 tcp 1040 ------- 0 4.0 6.0 426 4188
r 1.999726 0 6 tcp 1040 ------- 0 4.0 6.0 427 4190
r 2.000558 0 6 tcp 1040 ------- 0 4.0 6.0 428 4192
r 2.00139 0 6 tcp 1040 ------- 0 4.0 6.0 429 4194
r 2.002222 0 6 tcp 1040 ------- 0 4.0 6.0 430 4196
r 2.003054 0 6 tcp 1040 ------- 0 4.0 6.0 431 4198
r 2.053806 0 6 tcp 1040 ------- 0 4.0 6.0 432 4316
r 2.054638 0 6 tcp 1040 ------- 0 4.0 6.0 433 4318
r 2.05547 0 6 tcp 1040 ------- 0 4.0 6.0 434 4320
r 2.056302 0 6 tcp 1040 ------- 0 4.0 6.0 435 4322
r 2.057134 0 6 tcp 1040 ------- 0 4.0 6.0 436 4324
r 2.057966 0 6 tcp 1040 ------- 0 4.0 6.0 437 4326
r 2.058798 0 6 tcp 1040 ------- 0 4.0 6.0 438 4328
r 2.05963 0 6 tcp 1040 ------- 0 4.0 6.0 439 4330
r 2.060462 0 6 tcp 1040 ------- 0 4.0 6.0 440 4332
r 2.061294 0 6 tcp 1040 ------- 0 4.0 6.0 441 4334
r 2.062126 0 6 tcp 1040 ------- 0 4.0 6.0 442 4335
r 2.062958 0 6 tcp 1040 ------- 0 4.0 6.0 443 4337
r 2.06379 0 6 tcp 1040 ------- 0 4.0 6.0 444 4339
r 2.064622 0 6 tcp 1040 ------- 0 4.0 6.0 445 4341
r 2.065454 0 6 tcp 1040 ------- 0 4.0 6.0 446 4343
r 2.118702 0 6 tcp 1040 ------- 0 4.0 6.0 447 4469
r 2.119534 0 6 tcp 1040 ------- 0 4.0 6.0 448 4471
r 2.120366 0 6 tcp 1040 ------- 0 4.0 6.0 449 4473
r 2.121198 0 6 tcp 1040 ------- 0 4.0 6.0 450 4475
r 2.12203 0 6 tcp 1040 ------- 0 4.0 6.0 451 4477
r 2.122862 0 6 tcp 1040 ------- 0 4.0 6.0 452 4479
r 2.123694 0 6 tcp 1040 ------- 0 4.0 6.0 453 4481
r 2.124526 0 6 tcp 1040 ------- 0 4.0 6.0 454 4483
r 2.125358 0 6 tcp 1040 ------- 0 4.0 6.0 455 4485
r 2.12619 0 6 tcp 1040 ------- 0 4.0 6.0 456 4487
r 2.127022 0 6 tcp 1040 ------- 0 4.0 6.0 457 4489
r 2.127854 0 6 tcp 1040 ------- 0 4.0 6.0 459 4492
r 2.128686 0 6 tcp 1040 ------- 0 4.0 6.0 460 4494
r 2.129518 0 6 tcp 1040 ------- 0 4.0 6.0 461 4496
r 2.13035 0 6 tcp 1040 ------- 0 4.0 6.0 462 4498
r 2.182766 0 6 tcp 1040 ------- 0 4.0 6.0 463 4628
r 2.183598 0 6 tcp 1040 ------- 0 4.0 6.0 464 4630
r 2.18443 0 6 tcp 1040 ------- 0 4.0 6.0 465 4632
r 2.185262 0 6 tcp 1040 ------- 0 4.0 6.0 466 4634
r 2.186094 0 6 tcp 1040 ------- 0 4.0 6.0 467 4636
r 2.186926 0 6 tcp 1040 ------- 0 4.0 6.0 468 4638
r 2.187758 0 6 tcp 1040 ------- 0 4.0 6.0 469 4640
r 2.18859 0 6 tcp 1040 ------- 0 4.0 6.0 470 4642
r 2.189422 0 6 tcp 1040 ------- 0 4.0 6.0 471 4644
r 2.190254 0 6 tcp 1040 ------- 0 4.0 6.0 472 4646
r 2.191086 0 6 tcp 1040 ------- 0 4.0 6.0 473 4648
r 2.191918 0 6 tcp 1040 ------- 0 4.0 6.0 474 4650
r 2.19275 0 6 tcp 1040 ------- 0 4.0 6.0 475 4652
r 2.193582 0 6 tcp 1040 ---A--- 0 4.0 6.0 458 4654
r 2.236014 0 6 tcp 1040 ------- 0 4.0 6.0 476 4782
r 2.236846 0 6 tcp 1040 ------- 0 4.0 6.0 477 4783
r 2.262639 0 6 tcp 1040 ------- 0 4.0 6.0 478 4837
r 2.263471 0 6 tcp 1040 ------- 0 4.0 6.0 479 4838
r 2.264303 0 6 tcp 1040 ------- 0 4.0 6.0 480 4839
r 2.265135 0 6 tcp 1040 ------- 0 4.0 6.0 481 4840
r 2.29176 0 6 tcp 1040 ------- 0 4.0 6.0 482 4879
r 2.292592 0 6 tcp 1040 ------- 0 4.0 6.0 483 4880
r 2.293424 0 6 tcp 1040 ------- 0 4.0 6.0 484 4881
r 2.294256 0 6 tcp 1040 ------- 0 4.0 6.0 485 4882
r 2.295088 0 6 tcp 1040 ------- 0 4.0 6.0 486 4883
r 2.29592 0 6 tcp 1040 ------- 0 4.0 6.0 487 4884
r 2.296752 0 6 tcp 1040 ------- 0 4.0 6.0 488 4885
r 2.297584 0 6 tcp 1040 ------- 0 4.0 6.0 489 4886
r 2.32504 0 6 tcp 1040 ------- 0 4.0 6.0 490 4945
r 2.325872 0 6 tcp 1040 ------- 0 4.0 6.0 491 4947
r 2.326704 0 6 tcp 1040 ------- 0 4.0 6.0 492 4949
r 2.327536 0 6 tcp 1040 ------- 0 4.0 6.0 493 4951
r 2.328368 0 6 tcp 1040 ------- 0 4.0 6.0 494 4953
r 2.3292 0 6 tcp 1040 ------- 0 4.0 6.0 495 4955
r 2.330032 0 6 tcp 1040 ------- 0 4.0 6.0 496 4957
r 2.330864 0 6 tcp 1040 ------- 0 4.0 6.0 497 4959
r 2.359152 0 6 tcp 1040 ------- 0 4.0 6.0 498 5026
r 2.359984 0 6 tcp 1040 ------- 0 4.0 6.0 499 5027
r 2.360816 0 6 tcp 1040 ------- 0 4.0 6.0 500 5029
r 2.361648 0 6 tcp 1040 ------- 0 4.0 6.0 501 5031
r 2.36248 0 6 tcp 1040 ------- 0 4.0 6.0 502 5033
r 2.363312 0 6 tcp 1040 ------- 0 4.0 6.0 503 5035
r 2.364144 0 6 tcp 1040 ------- 0 4.0 6.0 504 5037
r 2.364976 0 6 tcp 1040 ------- 0 4.0 6.0 505 5039
r 2.365808 0 6 tcp 1040 ------- 0 4.0 6.0 506 5041
r 2.397424 0 6 tcp 1040 ------- 0 4.0 6.0 507 5113
r 2.398256 0 6 tcp 1040 ------- 0 4.0 6.0 508 5115
r 2.399088 0 6 tcp 1040 ------- 0 4.0 6.0 509 5116
r 2.39992 0 6 tcp 1040 ------- 0 4.0 6.0 510 5118
r 2.400752 0 6 tcp 1040 ------- 0 4.0 6.0 511 5120
r 2.401584 0 6 tcp 1040 ------- 0 4.0 6.0 512 5122
r 2.402416 0 6 tcp 1040 ------- 0 4.0 6.0 513 5124
r 2.403248 0 6 tcp 1040 ------- 0 4.0 6.0 514 5126
r 2.40408 0 6 tcp 1040 ------- 0 4.0 6.0 515 5128
r 2.404912 0 6 tcp 1040 ------- 0 4.0 6.0 516 5130
r 2.439856 0 6 tcp 1040 ------- 0 4.0 6.0 517 5210
r 2.440688 0 6 tcp 1040 ------- 0 4.0 6.0 518 5212
r 2.44152 0 6 tcp 1040 ------- 0 4.0 6.0 519 5214
r 2.442352 0 6 tcp 1040 ------- 0 4.0 6.0 520 5216
r 2.443184 0 6 tcp 1040 ------- 0 4.0 6.0 521 5217
r 2.444016 0 6 tcp 1040 ------- 0 4.0 6.0 522 5219
r 2.444848 0 6 tcp 1040 ------- 0 4.0 6.0 523 5221
r 2.44568 0 6 tcp 1040 ------- 0 4.0 6.0 524 5223
r 2.446512 0 6 tcp 1040 ------- 0 4.0 6.0 525 5225
r 2.447344 0 6 tcp 1040 ------- 0 4.0 6.0 526 5227
r 2.448176 0 6 tcp 1040 ------- 0 4.0 6.0 527 5229
r 2.486448 0 6 tcp 1040 ------- 0 4.0 6.0 528 5317
r 2.48728 0 6 tcp 1040 ------- 0 4.0 6.0 529 5319
r 2.488112 0 6 tcp 1040 ------- 0 4.0 6.0 530 5321
r 2.488944 0 6 tcp 1040 ------- 0 4.0 6.0 531 5323
r 2.489776 0 6 tcp 1040 ------- 0 4.0 6.0 532 5325
r 2.490608 0 6 tcp 1040 ------- 0 4.0 6.0 533 5326
r 2.49144 0 6 tcp 1040 ------- 0 4.0 6.0 534 5328
r 2.492272 0 6 tcp 1040 ------- 0 4.0 6.0 535 5330
r 2.493104 0 6 tcp 1040 ------- 0 4.0 6.0 536 5332
r 2.493936 0 6 tcp 1040 ------- 0 4.0 6.0 537 5334
r 2.494768 0 6 tcp 1040 ------- 0 4.0 6.0 538 5336
r 2.4956 0 6 tcp 1040 ------- 0 4.0 6.0 539 5338
r 2.5372 0 6 tcp 1040 ------- 0 4.0 6.0 540 5434
r 2.538032 0 6 tcp 1040 ------- 0 4.0 6.0 541 5436
r 2.538864 0 6 tcp 1040 ------- 0 4.0 6.0 542 5438
r 2.539696 0 6 tcp 1040 ------- 0 4.0 6.0 543 5440
r 2.540528 0 6 tcp 1040 ------- 0 4.0 6.0 544 5442
r 2.54136 0 6 tcp 1040 ------- 0 4.0 6.0 545 5444
r 2.542192 0 6 tcp 1040 ------- 0 4.0 6.0 546 5446
r 2.543024 0 6 tcp 1040 ------- 0 4.0 6.0 547 5447
r 2.543856 0 6 tcp 1040 ------- 0 4.0 6.0 548 5449
r 2.544688 0 6 tcp 1040 ------- 0 4.0 6.0 549 5451
r 2.54552 0 6 tcp 1040 ------- 0 4.0 6.0 550 5453
r 2.546352 0 6 tcp 1040 ------- 0 4.0 6.0 551 5455
r 2.547184 0 6 tcp 1040 ------- 0 4.0 6.0 552 5457
r 2.592112 0 6 tcp 1040 ------- 0 4.0 6.0 553 5561
r 2.592944 0 6 tcp 1040 ------- 0 4.0 6.0 554 5563
r 2.593776 0 6 tcp 1040 ------- 0 4.0 6.0 555 5565
r 2.594608 0 6 tcp 1040 ------- 0 4.0 6.0 556 5567
r 2.59544 0 6 tcp 1040 ------- 0 4.0 6.0 557 5569
r 2.596272 0 6 tcp 1040 ------- 0 4.0 6.0 558 5571
r 2.597104 0 6 tcp 1040 ------- 0 4.0 6.0 559 5573
r 2.597936 0 6 tcp 1040 ------- 0 4.0 6.0 560 5575
r 2.598768 0 6 tcp 1040 ------- 0 4.0 6.0 561 5576
r 2.5996 0 6 tcp 1040 ------- 0 4.0 6.0 562 5578
r 2.600432 0 6 tcp 1040 ------- 0 4.0 6.0 563 5580
r 2.601264 0 6 tcp 1040 ------- 0 4.0 6.0 564 5582
r 2.602096 0 6 tcp 1040 ------- 0 4.0 6.0 565 5584
r 2.602928 0 6 tcp 1040 ------- 0 4.0 6.0 566 5586
r 2.651184 0 6 tcp 1040 ------- 0 4.0 6.0 567 5698
r 2.652016 0 6 tcp 1040 ------- 0 4.0 6.0 568 5700
r 2.652848 0 6 tcp 1040 ------- 0 4.0 6.0 569 5702
r 2.65368 0 6 tcp 1040 ------- 0 4.0 6.0 570 5704
r 2.654512 0 6 tcp 1040 ------- 0 4.0 6.0 571 5706
r 2.655344 0 6 tcp 1040 ------- 0 4.0 6.0 572 5708
r 2.656176 0 6 tcp 1040 ------- 0 4.0 6.0 573 5710
r 2.657008 0 6 tcp 1040 ------- 0 4.0 6.0 574 5712
r 2.65784 0 6 tcp 1040 ------- 0 4.0 6.0 575 5714
r 2.658672 0 6 tcp 1040 ------- 0 4.0 6.0 576 5716
r 2.659504 0 6 tcp 1040 ------- 0 4.0 6.0 577 5717
r 2.660336 0 6 tcp 1040 ------- 0 4.0 6.0 578 5719
r 2.661168 0 6 tcp 1040 ------- 0 4.0 6.0 579 5721
r 2.662 0 6 tcp 1040 ------- 0 4.0 6.0 580 5723
r 2.662832 0 6 tcp 1040 ------- 0 4.0 6.0 581 5725
r 2.714416 0 6 tcp 1040 ------- 0 4.0 6.0 582 5845
r 2.715248 0 6 tcp 1040 ------- 0 4.0 6.0 583 5847
r 2.71608 0 6 tcp 1040 ------- 0 4.0 6.0 584 5849
r 2.716912 0 6 tcp 1040 ------- 0 4.0 6.0 585 5851
r 2.717744 0 6 tcp 1040 ------- 0 4.0 6.0 586 5853
r 2.718576 0 6 tcp 1040 ------- 0 4.0 6.0 587 5855