r 6.386652 0 12 tcp 40 ------- 0 4.6 12.0 0 8122
r 6.427388 0 12 tcp 1040 ------- 0 4.6 12.0 1 8225
r 6.42822 0 12 tcp 1040 ------- 0 4.6 12.0 2 8226
r 6.475644 0 12 tcp 1040 ------- 0 4.6 12.0 3 8344
r 6.476476 0 12 tcp 1040 ------- 0 4.6 12.0 4 8345
r 6.477308 0 12 tcp 1040 ------- 0 4.6 12.0 5 8347
r 6.47814 0 12 tcp 1040 ------- 0 4.6 12.0 6 8348
r 6.528892 0 12 tcp 1040 ------- 0 4.6 12.0 7 8486
r 6.529724 0 12 tcp 1040 ------- 0 4.6 12.0 8 8487
r 6.530556 0 12 tcp 1040 ------- 0 4.6 12.0 9 8490
r 6.531388 0 12 tcp 1040 ------- 0 4.6 12.0 10 8491
r 6.53222 0 12 tcp 1040 ------- 0 4.6 12.0 11 8493
r 6.533052 0 12 tcp 1040 ------- 0 4.6 12.0 12 8494
r 6.533884 0 12 tcp 1040 ------- 0 4.6 12.0 13 8495
r 6.534716 0 12 tcp 1040 ------- 0 4.6 12.0 14 8496
r 6.585468 0 12 tcp 1040 ------- 0 4.6 12.0 15 8638
r 6.5863 0 12 tcp 1040 ------- 0 4.6 12.0 16 8639
r 6.587132 0 12 tcp 1040 ------- 0 4.6 12.0 17 8642
r 6.587964 0 12 tcp 1040 ------- 0 4.6 12.0 18 8643
r 6.588796 0 12 tcp 1040 ------- 0 4.6 12.0 19 8645
r 6.589628 0 12 tcp 1040 ------- 0 4.6 12.0 20 8646
r 6.59046 0 12 tcp 1040 ------- 0 4.6 12.0 21 8648
r 6.591292 0 12 tcp 1040 ------- 0 4.6 12.0 22 8649
r 6.592124 0 12 tcp 1040 ------- 0 4.6 12.0 23 8650
r 6.592956 0 12 tcp 1040 ------- 0 4.6 12.0 24 8651
r 6.593788 0 12 tcp 1040 ------- 0 4.6 12.0 25 8653
r 6.59462 0 12 tcp 1040 ------- 0 4.6 12.0 26 8654
r 6.595452 0 12 tcp 1040 ------- 0 4.6 12.0 27 8656
r 6.596284 0 12 tcp 1040 ------- 0 4.6 12.0 28 8657
r 6.597116 0 12 tcp 1040 ------- 0 4.6 12.0 29 8659
r 6.597948 0 12 tcp 1040 ------- 0 4.6 12.0 30 8660
r 6.6487 0 12 tcp 1040 ------- 0 4.6 12.0 31 8802
r 6.649532 0 12 tcp 1040 ------- 0 4.6 12.0 32 8803
r 6.650364 0 12 tcp 1040 ------- 0 4.6 12.0 33 8805
r 6.651196 0 12 tcp 1040 ------- 0 4.6 12.0 34 8806
r 6.652028 0 12 tcp 1040 ------- 0 4.6 12.0 35 8808
r 6.65286 0 12 tcp 1040 ------- 0 4.6 12.0 37 8811
r 6.653692 0 12 tcp 1040 ------- 0 4.6 12.0 39 8814
r 6.654524 0 12 tcp 1040 ------- 0 4.6 12.0 40 8816
r 6.655356 0 12 tcp 1040 ------- 0 4.6 12.0 41 8819
r 6.656188 0 12 tcp 1040 ------- 0 4.6 12.0 42 8820
r 6.65702 0 12 tcp 1040 ------- 0 4.6 12.0 43 8822
r 6.657852 0 12 tcp 1040 ------- 0 4.6 12.0 44 8825
r 6.658684 0 12 tcp 1040 ------- 0 4.6 12.0 45 8828
r 6.659516 0 12 tcp 1040 ------- 0 4.6 12.0 46 8829
r 6.660348 0 12 tcp 1040 ------- 0 4.6 12.0 47 8830
r 6.66118 0 12 tcp 1040 ------- 0 4.6 12.0 48 8832
r 6.662012 0 12 tcp 1040 ------- 0 4.6 12.0 49 8834
r 6.662844 0 12 tcp 1040 ------- 0 4.6 12.0 50 8838
r 6.713596 0 12 tcp 1040 ------- 0 4.6 12.0 51 8979
r 6.714428 0 12 tcp 1040 ------- 0 4.6 12.0 52 8980
r 6.71526 0 12 tcp 1040 ------- 0 4.6 12.0 53 8982
r 6.716092 0 12 tcp 1040 ------- 0 4.6 12.0 54 8984
r 6.716924 0 12 tcp 1040 ------- 0 4.6 12.0 55 8988
r 6.717756 0 12 tcp 1040 ---A--- 0 4.6 12.0 36 8994
r 6.768508 0 12 tcp 1040 ------- 0 4.6 12.0 38 9158
r 6.76934 0 12 tcp 1040 ------- 0 4.6 12.0 39 9159
r 6.820092 0 12 tcp 1040 ------- 0 4.6 12.0 56 9298
r 6.820924 0 12 tcp 1040 ------- 0 4.6 12.0 57 9299
r 6.821756 0 12 tcp 1040 ------- 0 4.6 12.0 58 9300
r 6.822588 0 12 tcp 1040 ------- 0 4.6 12.0 59 9302
r 6.87334 0 12 tcp 1040 ------- 0 4.6 12.0 60 9442
r 6.874172 0 12 tcp 1040 ------- 0 4.6 12.0 61 9444
r 6.875004 0 12 tcp 1040 ------- 0 4.6 12.0 62 9445
r 6.875836 0 12 tcp 1040 ------- 0 4.6 12.0 63 9447
r 6.876668 0 12 tcp 1040 ------- 0 4.6 12.0 64 9448
r 6.8775 0 12 tcp 1040 ------- 0 4.6 12.0 65 9452
r 6.878332 0 12 tcp 1040 ------- 0 4.6 12.0 66 9453
r 6.929084 0 12 tcp 1040 ------- 0 4.6 12.0 67 9595
r 6.929916 0 12 tcp 1040 ------- 0 4.6 12.0 68 9596
r 6.930748 0 12 tcp 1040 ------- 0 4.6 12.0 69 9598
r 6.93158 0 12 tcp 1040 ------- 0 4.6 12.0 70 9599
r 6.932412 0 12 tcp 1040 ------- 0 4.6 12.0 71 9603
r 6.933244 0 12 tcp 1040 ------- 0 4.6 12.0 72 9604
r 6.934076 0 12 tcp 1040 ------- 0 4.6 12.0 73 9608
r 6.934908 0 12 tcp 1040 ------- 0 4.6 12.0 74 9610
r 6.93574 0 12 tcp 1040 ------- 0 4.6 12.0 75 9614
r 6.936572 0 12 tcp 1040 ------- 0 4.6 12.0 76 9617
r 6.987324 0 12 tcp 1040 ------- 0 4.6 12.0 77 9758
r 6.988156 0 12 tcp 1040 ------- 0 4.6 12.0 78 9762
r 6.988988 0 12 tcp 1040 ------- 0 4.6 12.0 79 9766
r 6.98982 0 12 tcp 1040 ------- 0 4.6 12.0 80 9769
r 6.990652 0 12 tcp 1040 ------- 0 4.6 12.0 81 9771
r 6.991484 0 12 tcp 1040 ------- 0 4.6 12.0 82 9773
r 6.992316 0 12 tcp 1040 ------- 0 4.6 12.0 83 9774
r 6.993148 0 12 tcp 1040 ------- 0 4.6 12.0 84 9775
r 6.99398 0 12 tcp 1040 ------- 0 4.6 12.0 85 9777
r 6.994812 0 12 tcp 1040 ------- 0 4.6 12.0 86 9779
r 6.995644 0 12 tcp 1040 ------- 0 4.6 12.0 87 9781
r 7.046396 0 12 tcp 1040 ------- 0 4.6 12.0 88 9927
r 7.047228 0 12 tcp 1040 ------- 0 4.6 12.0 89 9929
r 7.04806 0 12 tcp 1040 ------- 0 4.6 12.0 90 9931
r 7.048892 0 12 tcp 1040 ------- 0 4.6 12.0 91 9933
r 7.049724 0 12 tcp 1040 ------- 0 4.6 12.0 92 9935
r 7.050556 0 12 tcp 1040 ------- 0 4.6 12.0 93 9937
r 7.051388 0 12 tcp 1040 ------- 0 4.6 12.0 94 9940
r 7.05222 0 12 tcp 1040 ------- 0 4.6 12.0 95 9941
r 7.053052 0 12 tcp 1040 ------- 0 4.6 12.0 96 9942
r 7.053884 0 12 tcp 1040 ------- 0 4.6 12.0 97 9945
r 7.054716 0 12 tcp 1040 ------- 0 4.6 12.0 98 9947
r 7.055548 0 12 tcp 1040 ------- 0 4.6 12.0 99 9950
r 7.1063 0 12 tcp 1040 ------- 0 4.6 12.0 100 10094
r 7.107132 0 12 tcp 1040 ------- 0 4.6 12.0 101 10097
r 7.107964 0 12 tcp 1040 ------- 0 4.6 12.0 102 10098
r 7.108796 0 12 tcp 1040 ------- 0 4.6 12.0 103 10102
r 7.109628 0 12 tcp 1040 ------- 0 4.6 12.0 104 10103
r 7.11046 0 12 tcp 1040 ------- 0 4.6 12.0 105 10104
r 7.111292 0 12 tcp 1040 ------- 0 4.6 12.0 106 10106
r 7.112124 0 12 tcp 1040 ------- 0 4.6 12.0 107 10108
r 7.112956 0 12 tcp 1040 ------- 0 4.6 12.0 108 10110
r 7.113788 0 12 tcp 1040 ------- 0 4.6 12.0 109 10114
r 7.11462 0 12 tcp 1040 ------- 0 4.6 12.0 110 10115
r 7.115452 0 12 tcp 1040 ------- 0 4.6 12.0 111 10119
r 7.116284 0 12 tcp 1040 ------- 0 4.6 12.0 112 10121
r 7.167036 0 12 tcp 1040 ------- 0 4.6 12.0 113 10263
r 7.167868 0 12 tcp 1040 ------- 0 4.6 12.0 114 10267
r 7.1687 0 12 tcp 1040 ------- 0 4.6 12.0 115 10269
r 7.169532 0 12 tcp 1040 ------- 0 4.6 12.0 116 10273
r 7.170364 0 12 tcp 1040 ------- 0 4.6 12.0 117 10275
r 7.171196 0 12 tcp 1040 ------- 0 4.6 12.0 118 10277
r 7.172028 0 12 tcp 1040 ------- 0 4.6 12.0 119 10279
r 7.17286 0 12 tcp 1040 ------- 0 4.6 12.0 120 10281
r 7.173692 0 12 tcp 1040 ------- 0 4.6 12.0 121 10283
r 7.174524 0 12 tcp 1040 ------- 0 4.6 12.0 122 10287
r 7.175356 0 12 tcp 1040 ------- 0 4.6 12.0 123 10289
r 7.176188 0 12 tcp 1040 ------- 0 4.6 12.0 124 10290
r 7.17702 0 12 tcp 1040 ------- 0 4.6 12.0 125 10294
r 7.177852 0 12 tcp 1040 ------- 0 4.6 12.0 126 10296
r 7.228604 0 12 tcp 1040 ------- 0 4.6 12.0 127 10438
r 7.229436 0 12 tcp 1040 ------- 0 4.6 12.0 128 10442
r 7.230268 0 12 tcp 1040 ------- 0 4.6 12.0 129 10444
r 7.2311 0 12 tcp 1040 ------- 0 4.6 12.0 130 10448
r 7.231932 0 12 tcp 1040 ------- 0 4.6 12.0 131 10452
r 7.232764 0 12 tcp 1040 ------- 0 4.6 12.0 132 10454
r 7.233596 0 12 tcp 1040 ------- 0 4.6 12.0 133 10458
r 7.234428 0 12 tcp 1040 ------- 0 4.6 12.0 134 10461
r 7.23526 0 12 tcp 1040 ------- 0 4.6 12.0 135 10463
r 7.236092 0 12 tcp 1040 ------- 0 4.6 12.0 136 10464
r 7.236924 0 12 tcp 1040 ------- 0 4.6 12.0 137 10466
r 7.237756 0 12 tcp 1040 ------- 0 4.6 12.0 138 10468
r 7.238588 0 12 tcp 1040 ------- 0 4.6 12.0 139 10470
r 7.23942 0 12 tcp 1040 ------- 0 4.6 12.0 140 10471
r 7.240252 0 12 tcp 1040 ------- 0 4.6 12.0 141 10473
r 7.291004 0 12 tcp 1040 ------- 0 4.6 12.0 142 10619
r 7.291836 0 12 tcp 1040 ------- 0 4.6 12.0 143 10621
r 7.292668 0 12 tcp 1040 ------- 0 4.6 12.0 144 10623
r 7.2935 0 12 tcp 1040 ------- 0 4.6 12.0 145 10625
r 7.294332 0 12 tcp 1040 ------- 0 4.6 12.0 146 10627
r 7.295164 0 12 tcp 1040 ------- 0 4.6 12.0 147 10630
r 7.295996 0 12 tcp 1040 ------- 0 4.6 12.0 148 10632
r 7.296828 0 12 tcp 1040 ------- 0 4.6 12.0 149 10634
r 7.29766 0 12 tcp 1040 ------- 0 4.6 12.0 150 10636
r 7.298492 0 12 tcp 1040 ------- 0 4.6 12.0 151 10638
r 7.299324 0 12 tcp 1040 ------- 0 4.6 12.0 152 10641
r 7.300156 0 12 tcp 1040 ------- 0 4.6 12.0 153 10642
r 7.300988 0 12 tcp 1040 ------- 0 4.6 12.0 154 10643
r 7.30182 0 12 tcp 1040 ------- 0 4.6 12.0 155 10645
r 7.302652 0 12 tcp 1040 ------- 0 4.6 12.0 156 10646
r 7.303484 0 12 tcp 1040 ------- 0 4.6 12.0 157 10648
r 7.354236 0 12 tcp 1040 ------- 0 4.6 12.0 158 10795
r 7.355068 0 12 tcp 1040 ------- 0 4.6 12.0 159 10796
r 7.3559 0 12 tcp 1040 ------- 0 4.6 12.0 160 10798
r 7.356732 0 12 tcp 1040 ------- 0 4.6 12.0 161 10800
r 7.357564 0 12 tcp 1040 ------- 0 4.6 12.0 162 10804
r 7.358396 0 12 tcp 1040 ------- 0 4.6 12.0 163 10806
r 7.359228 0 12 tcp 1040 ------- 0 4.6 12.0 164 10810
r 7.36006 0 12 tcp 1040 ------- 0 4.6 12.0 165 10812
r 7.360892 0 12 tcp 1040 ------- 0 4.6 12.0 166 10814
r 7.361724 0 12 tcp 1040 ------- 0 4.6 12.0 167 10816
r 7.362556 0 12 tcp 1040 ------- 0 4.6 12.0 168 10818
r 7.363388 0 12 tcp 1040 ------- 0 4.6 12.0 169 10820
r 7.36422 0 12 tcp 1040 ------- 0 4.6 12.0 170 10822
r 7.365052 0 12 tcp 1040 ------- 0 4.6 12.0 171 10826
r 7.365884 0 12 tcp 1040 ------- 0 4.6 12.0 172 10828
r 7.366716 0 12 tcp 1040 ------- 0 4.6 12.0 173 10832
r 7.367548 0 12 tcp 1040 ------- 0 4.6 12.0 174 10833
r 7.4183 0 12 tcp 1040 ------- 0 4.6 12.0 175 10975
r 7.419132 0 12 tcp 1040 ------- 0 4.6 12.0 176 10979
r 7.419964 0 12 tcp 1040 ------- 0 4.6 12.0 177 10981
r 7.420796 0 12 tcp 1040 ------- 0 4.6 12.0 178 10985
r 7.421628 0 12 tcp 1040 ------- 0 4.6 12.0 179 10987
r 7.42246 0 12 tcp 1040 ------- 0 4.6 12.0 180 10991
r 7.423292 0 12 tcp 1040 ------- 0 4.6 12.0 181 10995
r 7.424124 0 12 tcp 1040 ------- 0 4.6 12.0 182 10998
r 7.424956 0 12 tcp 1040 ------- 0 4.6 12.0 183 10999
r 7.425788 0 12 tcp 1040 ------- 0 4.6 12.0 184 11002
r 7.42662 0 12 tcp 1040 ------- 0 4.6 12.0 185 11003
r 7.427452 0 12 tcp 1040 ------- 0 4.6 12.0 186 11005
r 7.428284 0 12 tcp 1040 ------- 0 4.6 12.0 187 11007
r 7.429116 0 12 tcp 1040 ------- 0 4.6 12.0 188 11009
r 7.429948 0 12 tcp 1040 ------- 0 4.6 12.0 189 11011
r 7.43078 0 12 tcp 1040 ------- 0 4.6 12.0 190 11014
r 7.431612 0 12 tcp 1040 ------- 0 4.6 12.0 191 11015
r 7.432444 0 12 tcp 1040 ------- 0 4.6 12.0 192 11016
r 7.483196 0 12 tcp 1040 ------- 0 4.6 12.0 193 11162
r 7.484028 0 12 tcp 1040 ------- 0 4.6 12.0 194 11164
r 7.48486 0 12 tcp 1040 ------- 0 4.6 12.0 195 11166
r 7.485692 0 12 tcp 1040 ------- 0 4.6 12.0 196 11169
r 7.486524 0 12 tcp 1040 ------- 0 4.6 12.0 197 11170
r 7.487356 0 12 tcp 1040 ------- 0 4.6 12.0 198 11173
r 7.488188 0 12 tcp 1040 ------- 0 4.6 12.0 199 11175
r 7.48902 0 12 tcp 1040 ------- 0 4.6 12.0 200 11178
r 7.489852 0 12 tcp 1040 ------- 0 4.6 12.0 201 11179
r 7.490684 0 12 tcp 1040 ------- 0 4.6 12.0 202 11180
r 7.491516 0 12 tcp 1040 ------- 0 4.6 12.0 203 11182
r 7.492348 0 12 tcp 1040 ------- 0 4.6 12.0 204 11184
r 7.49318 0 12 tcp 1040 ------- 0 4.6 12.0 205 11188
r 7.494012 0 12 tcp 1040 ------- 0 4.6 12.0 206 11190
r 7.494844 0 12 tcp 1040 ------- 0 4.6 12.0 207 11194
r 7.495676 0 12 tcp 1040 ------- 0 4.6 12.0 208 11196
r 7.496508 0 12 tcp 1040 ------- 0 4.6 12.0 209 11198
r 7.49734 0 12 tcp 1040 ------- 0 4.6 12.0 210 11200
r 7.548092 0 12 tcp 1040 ------- 0 4.6 12.0 211 11346
r 7.548924 0 12 tcp 1040 ------- 0 4.6 12.0 213 11349
r 7.549756 0 12 tcp 1040 ------- 0 4.6 12.0 214 11351
r 7.550588 0 12 tcp 1040 ------- 0 4.6 12.0 215 11353
r 7.55142 0 12 tcp 1040 ------- 0 4.6 12.0 216 11355
r 7.552252 0 12 tcp 1040 ------- 0 4.6 12.0 217 11357
r 7.553084 0 12 tcp 1040 ------- 0 4.6 12.0 218 11359
r 7.553916 0 12 tcp 1040 ------- 0 4.6 12.0 219 11363
r 7.554748 0 12 tcp 1040 ------- 0 4.6 12.0 220 11365
r 7.55558 0 12 tcp 1040 ------- 0 4.6 12.0 221 11369
r 7.556412 0 12 tcp 1040 ------- 0 4.6 12.0 222 11371
r 7.557244 0 12 tcp 1040 ------- 0 4.6 12.0 223 11375
r 7.558076 0 12 tcp 1040 ------- 0 4.6 12.0 224 11379
r 7.558908 0 12 tcp 1040 ------- 0 4.6 12.0 225 11382
r 7.55974 0 12 tcp 1040 ------- 0 4.6 12.0 226 11384
r 7.560572 0 12 tcp 1040 ------- 0 4.6 12.0 227 11386
r 7.561404 0 12 tcp 1040 ------- 0 4.6 12.0 228 11387
r 7.562236 0 12 tcp 1040 ------- 0 4.6 12.0 229 11389
r 7.612988 0 12 tcp 1040 ------- 0 4.6 12.0 230 11536
r 7.61382 0 12 tcp 1040 ------- 0 4.6 12.0 231 11538
r 7.614652 0 12 tcp 1040 ---A--- 0 4.6 12.0 212 11540
r 7.665404 0 12 tcp 1040 ------- 0 4.6 12.0 232 11702
r 7.666236 0 12 tcp 1040 ------- 0 4.6 12.0 233 11703
r 7.716988 0 12 tcp 1040 ------- 0 4.6 12.0 234 11851
r 7.71782 0 12 tcp 1040 ------- 0 4.6 12.0 235 11852
r 7.718652 0 12 tcp 1040 ------- 0 4.6 12.0 236 11853
r 7.719484 0 12 tcp 1040 ------- 0 4.6 12.0 237 11854
r 7.770236 0 12 tcp 1040 ------- 0 4.6 12.0 238 12000
r 7.771068 0 12 tcp 1040 ------- 0 4.6 12.0 239 12001
r 7.7719 0 12 tcp 1040 ------- 0 4.6 12.0 240 12003
r 7.772732 0 12 tcp 1040 ------- 0 4.6 12.0 241 12004
r 7.773564 0 12 tcp 1040 ------- 0 4.6 12.0 242 12007
r 7.774396 0 12 tcp 1040 ------- 0 4.6 12.0 243 12008
r 7.775228 0 12 tcp 1040 ------- 0 4.6 12.0 244 12009
r 7.77606 0 12 tcp 1040 ------- 0 4.6 12.0 245 12010
r 7.826812 0 12 tcp 1040 ------- 0 4.6 12.0 246 12156
r 7.827644 0 12 tcp 1040 ------- 0 4.6 12.0 247 12157
r 7.828476 0 12 tcp 1040 ------- 0 4.6 12.0 248 12158
r 7.829308 0 12 tcp 1040 ------- 0 4.6 12.0 249 12161
r 7.83014 0 12 tcp 1040 ------- 0 4.6 12.0 250 12164
r 7.830972 0 12 tcp 1040 ------- 0 4.6 12.0 251 12165
r 7.831804 0 12 tcp 1040 ------- 0 4.6 12.0 252 12166
r 7.832636 0 12 tcp 1040 ------- 0 4.6 12.0 253 12168
r 7.833468 0 12 tcp 1040 ------- 0 4.6 12.0 254 12170
r 7.88422 0 12 tcp 1040 ------- 0 4.6 12.0 255 12317
r 7.885052 0 12 tcp 1040 ------- 0 4.6 12.0 256 12318
r 7.885884 0 12 tcp 1040 ------- 0 4.6 12.0 257 12320
r 7.886716 0 12 tcp 1040 ------- 0 4.6 12.0 258 12321
r 7.887548 0 12 tcp 1040 ------- 0 4.6 12.0 259 12323
r 7.88838 0 12 tcp 1040 ------- 0 4.6 12.0 260 12327
r 7.889212 0 12 tcp 1040 ------- 0 4.6 12.0 261 12329
r 7.890044 0 12 tcp 1040 ------- 0 4.6 12.0 262 12333
r 7.890876 0 12 tcp 1040 ------- 0 4.6 12.0 263 12335
r 7.891708 0 12 tcp 1040 ------- 0 4.6 12.0 264 12337
r 7.94246 0 12 tcp 1040 ------- 0 4.6 12.0 265 12479
r 7.943292 0 12 tcp 1040 ------- 0 4.6 12.0 266 12483
r 7.944124 0 12 tcp 1040 ------- 0 4.6 12.0 267 12485
r 7.944956 0 12 tcp 1040 ------- 0 4.6 12.0 268 12487
r 7.945788 0 12 tcp 1040 ------- 0 4.6 12.0 269 12488
r 7.94662 0 12 tcp 1040 ------- 0 4.6 12.0 270 12490
r 7.947452 0 12 tcp 1040 ------- 0 4.6 12.0 271 12492
r 7.948284 0 12 tcp 1040 ------- 0 4.6 12.0 272 12494
r 7.949116 0 12 tcp 1040 ------- 0 4.6 12.0 273 12496
r 7.949948 0 12 tcp 1040 ------- 0 4.6 12.0 274 12500
r 7.95078 0 12 tcp 1040 ------- 0 4.6 12.0 275 12502
r 8.001532 0 12 tcp 1040 ------- 0 4.6 12.0 276 12642
r 8.002364 0 12 tcp 1040 ------- 0 4.6 12.0 277 12644
r 8.003196 0 12 tcp 1040 ------- 0 4.6 12.0 278 12648
r 8.004028 0 12 tcp 1040 ------- 0 4.6 12.0 279 12650
r 8.00486 0 12 tcp 1040 ------- 0 4.6 12.0 280 12654
r 8.005692 0 12 tcp 1040 ------- 0 4.6 12.0 281 12656
r 8.006524 0 12 tcp 1040 ------- 0 4.6 12.0 282 12657
r 8.007356 0 12 tcp 1040 ------- 0 4.6 12.0 283 12659
r 8.008188 0 12 tcp 1040 ------- 0 4.6 12.0 284 12661
r 8.00902 0 12 tcp 1040 ------- 0 4.6 12.0 285 12666
r 8.009852 0 12 tcp 1040 ------- 0 4.6 12.0 286 12667
r 8.010684 0 12 tcp 1040 ------- 0 4.6 12.0 287 12670
r 8.061436 0 12 tcp 1040 ------- 0 4.6 12.0 288 12807
r 8.062268 0 12 tcp 1040 ------- 0 4.6 12.0 289 12811
r 8.0631 0 12 tcp 1040 ------- 0 4.6 12.0 290 12814
r 8.063932 0 12 tcp 1040 ------- 0 4.6 12.0 291 12816
r 8.064764 0 12 tcp 1040 ------- 0 4.6 12.0 292 12817
r 8.065596 0 12 tcp 1040 ------- 0 4.6 12.0 293 12819
r 8.066428 0 12 tcp 1040 ------- 0 4.6 12.0 294 12821
r 8.06726 0 12 tcp 1040 ------- 0 4.6 12.0 295 12822
r 8.068092 0 12 tcp 1040 ------- 0 4.6 12.0 296 12824
r 8.068924 0 12 tcp 1040 ------- 0 4.6 12.0 297 12826
r 8.069756 0 12 tcp 1040 ------- 0 4.6 12.0 298 12828
r 8.070588 0 12 tcp 1040 ------- 0 4.6 12.0 299 12831
r 8.07142 0 12 tcp 1040 ------- 0 4.6 12.0 300 12832
r 8.122172 0 12 tcp 1040 ------- 0 4.6 12.0 301 12970
r 8.123004 0 12 tcp 1040 ------- 0 4.6 12.0 302 12972
r 8.123836 0 12 tcp 1040 ------- 0 4.6 12.0 303 12975
r 8.124668 0 12 tcp 1040 ------- 0 4.6 12.0 304 12977
r 8.1255 0 12 tcp 1040 ------- 0 4.6 12.0 305 12978
r 8.126332 0 12 tcp 1040 ------- 0 4.6 12.0 306 12980
r 8.127164 0 12 tcp 1040 ------- 0 4.6 12.0 307 12982
r 8.127996 0 12 tcp 1040 ------- 0 4.6 12.0 308 12988
r 8.128828 0 12 tcp 1040 ------- 0 4.6 12.0 309 12989
r 8.12966 0 12 tcp 1040 ------- 0 4.6 12.0 310 12990
r 8.130492 0 12 tcp 1040 ------- 0 4.6 12.0 311 12991
r 8.131324 0 12 tcp 1040 ------- 0 4.6 12.0 312 12993
r 8.132156 0 12 tcp 1040 ------- 0 4.6 12.0 313 12995
r 8.132988 0 12 tcp 1040 ------- 0 4.6 12.0 314 12999
r 8.18374 0 12 tcp 1040 ------- 0 4.6 12.0 315 13139
r 8.184572 0 12 tcp 1040 ------- 0 4.6 12.0 316 13141
r 8.185404 0 12 tcp 1040 ------- 0 4.6 12.0 317 13143
r 8.186236 0 12 tcp 1040 ------- 0 4.6 12.0 318 13147
r 8.187068 0 12 tcp 1040 ------- 0 4.6 12.0 319 13149
r 8.1879 0 12 tcp 1040 ------- 0 4.6 12.0 320 13153
r 8.188732 0 12 tcp 1040 ------- 0 4.6 12.0 321 13155
r 8.189564 0 12 tcp 1040 ------- 0 4.6 12.0 322 13157
r 8.190396 0 12 tcp 1040 ------- 0 4.6 12.0 323 13159
r 8.191228 0 12 tcp 1040 ------- 0 4.6 12.0 324 13161
r 8.19206 0 12 tcp 1040 ------- 0 4.6 12.0 325 13162
r 8.192892 0 12 tcp 1040 ------- 0 4.6 12.0 326 13164
r 8.193724 0 12 tcp 1040 ------- 0 4.6 12.0 327 13166
r 8.194556 0 12 tcp 1040 ------- 0 4.6 12.0 328 13170
r 8.195388 0 12 tcp 1040 ------- 0 4.6 12.0 329 13173
r 8.24614 0 12 tcp 1040 ------- 0 4.6 12.0 330 13314
r 8.246972 0 12 tcp 1040 ------- 0 4.6 12.0 331 13316
r 8.247804 0 12 tcp 1040 ------- 0 4.6 12.0 332 13320
r 8.248636 0 12 tcp 1040 ------- 0 4.6 12.0 333 13322
r 8.249468 0 12 tcp 1040 ------- 0 4.6 12.0 334 13325
r 8.2503 0 12 tcp 1040 ------- 0 4.6 12.0 335 13326
r 8.251132 0 12 tcp 1040 ------- 0 4.6 12.0 336 13328
r 8.251964 0 12 tcp 1040 ------- 0 4.6 12.0 337 13332
r 8.252796 0 12 tcp 1040 ------- 0 4.6 12.0 338 13335
r 8.253628 0 12 tcp 1040 ------- 0 4.6 12.0 339 13337
r 8.25446 0 12 tcp 1040 ------- 0 4.6 12.0 340 13340
r 8.255292 0 12 tcp 1040 ------- 0 4.6 12.0 341 13341
r 8.256124 0 12 tcp 1040 ------- 0 4.6 12.0 342 13342
r 8.256956 0 12 tcp 1040 ------- 0 4.6 12.0 343 13343
r 8.257788 0 12 tcp 1040 ------- 0 4.6 12.0 344 13345
r 8.25862 0 12 tcp 1040 ------- 0 4.6 12.0 345 13347
r 8.309372 0 12 tcp 1040 ------- 0 4.6 12.0 346 13494
r 8.310204 0 12 tcp 1040 ------- 0 4.6 12.0 347 13496
r 8.311036 0 12 tcp 1040 ------- 0 4.6 12.0 348 13497
r 8.311868 0 12 tcp 1040 ------- 0 4.6 12.0 349 13499
r 8.3127 0 12 tcp 1040 ------- 0 4.6 12.0 350 13501
r 8.313532 0 12 tcp 1040 ------- 0 4.6 12.0 351 13503
r 8.314364 0 12 tcp 1040 ------- 0 4.6 12.0 352 13506
r 8.315196 0 12 tcp 1040 ------- 0 4.6 12.0 353 13507
r 8.316028 0 12 tcp 1040 ------- 0 4.6 12.0 354 13509
r 8.31686 0 12 tcp 1040 ------- 0 4.6 12.0 355 13511
r 8.317692 0 12 tcp 1040 ------- 0 4.6 12.0 356 13517
r 8.318524 0 12 tcp 1040 ------- 0 4.6 12.0 357 13518
r 8.319356 0 12 tcp 1040 ------- 0 4.6 12.0 358 13519
r 8.320188 0 12 tcp 1040 ------- 0 4.6 12.0 359 13520
r 8.32102 0 12 tcp 1040 ------- 0 4.6 12.0 360 13522
r 8.321852 0 12 tcp 1040 ------- 0 4.6 12.0 361 13524
r 8.322684 0 12 tcp 1040 ------- 0 4.6 12.0 362 13528
r 8.373436 0 12 tcp 1040 ------- 0 4.6 12.0 363 13673
r 8.374268 0 12 tcp 1040 ------- 0 4.6 12.0 364 13674
r 8.3751 0 12 tcp 1040 ------- 0 4.6 12.0 365 13676
r 8.375932 0 12 tcp 1040 ------- 0 4.6 12.0 366 13678
r 8.376764 0 12 tcp 1040 ------- 0 4.6 12.0 367 13682
r 8.377596 0 12 tcp 1040 ------- 0 4.6 12.0 368 13688
r 8.378428 0 12 tcp 1040 ------- 0 4.6 12.0 369 13690
r 8.37926 0 12 tcp 1040 ------- 0 4.6 12.0 370 13692
r 8.380092 0 12 tcp 1040 ------- 0 4.6 12.0 371 13694
r 8.380924 0 12 tcp 1040 ------- 0 4.6 12.0 372 13696
r 8.381756 0 12 tcp 1040 ------- 0 4.6 12.0 373 13698
r 8.382588 0 12 tcp 1040 ------- 0 4.6 12.0 374 13700
r 8.38342 0 12 tcp 1040 ------- 0 4.6 12.0 375 13704
r 8.384252 0 12 tcp 1040 ------- 0 4.6 12.0 376 13706
r 8.385084 0 12 tcp 1040 ------- 0 4.6 12.0 377 13709
r 8.385916 0 12 tcp 1040 ------- 0 4.6 12.0 378 13710
r 8.386748 0 12 tcp 1040 ------- 0 4.6 12.0 379 13711
r 8.38758 0 12 tcp 1040 ------- 0 4.6 12.0 380 13713
r 8.421724 0 12 tcp 1040 ------- 0 4.6 12.0 381 13836
r 8.422556 0 12 tcp 1040 ------- 0 4.6 12.0 382 13839
r 8.423388 0 12 tcp 1040 ------- 0 4.6 12.0 383 13840
r 8.42422 0 12 tcp 1040 ------- 0 4.6 12.0 384 13842
r 8.425052 0 12 tcp 1040 ------- 0 4.6 12.0 385 13844
r 8.425884 0 12 tcp 1040 ------- 0 4.6 12.0 386 13848
r 8.426716 0 12 tcp 1040 ------- 0 4.6 12.0 387 13851
r 8.427548 0 12 tcp 1040 ------- 0 4.6 12.0 388 13854
r 8.42838 0 12 tcp 1040 ------- 0 4.6 12.0 389 13855
r 8.429212 0 12 tcp 1040 ------- 0 4.6 12.0 390 13856
r 8.430044 0 12 tcp 1040 ------- 0 4.6 12.0 391 13858
r 8.430876 0 12 tcp 1040 ------- 0 4.6 12.0 392 13860
r 8.431708 0 12 tcp 1040 ------- 0 4.6 12.0 393 13862
r 8.43254 0 12 tcp 1040 ------- 0 4.6 12.0 394 13864
r 8.433372 0 12 tcp 1040 ------- 0 4.6 12.0 395 13867
r 8.434204 0 12 tcp 1040 ------- 0 4.6 12.0 396 13868
r 8.435036 0 12 tcp 1040 ------- 0 4.6 12.0 397 13869
r 8.435868 0 12 tcp 1040 ------- 0 4.6 12.0 398 13871
r 8.4367 0 12 tcp 1040 ------- 0 4.6 12.0 399 13873
r 8.472476 0 12 tcp 1040 ------- 0 4.6 12.0 400 13974
r 8.473308 0 12 tcp 1040 ------- 0 4.6 12.0 401 13976
r 8.47414 0 12 tcp 1040 ------- 0 4.6 12.0 402 13978
r 8.474972 0 12 tcp 1040 ------- 0 4.6 12.0 403 13980
r 8.475804 0 12 tcp 1040 ------- 0 4.6 12.0 404 13982
r 8.476636 0 12 tcp 1040 ------- 0 4.6 12.0 405 13984
r 8.477468 0 12 tcp 1040 ------- 0 4.6 12.0 406 13988
r 8.4783 0 12 tcp 1040 ------- 0 4.6 12.0 407 13990
r 8.479132 0 12 tcp 1040 ------- 0 4.6 12.0 408 13993
r 8.479964 0 12 tcp 1040 ------- 0 4.6 12.0 409 13994
r 8.480796 0 12 tcp 1040 ------- 0 4.6 12.0 410 13996
r 8.481628 0 12 tcp 1040 ------- 0 4.6 12.0 411 14000
r 8.48246 0 12 tcp 1040 ------- 0 4.6 12.0 412 14002
r 8.483292 0 12 tcp 1040 ------- 0 4.6 12.0 413 14006
r 8.484124 0 12 tcp 1040 ------- 0 4.6 12.0 414 14007
r 8.484956 0 12 tcp 1040 ------- 0 4.6 12.0 415 14008
r 8.485788 0 12 tcp 1040 ------- 0 4.6 12.0 416 14010
r 8.48662 0 12 tcp 1040 ------- 0 4.6 12.0 417 14012
r 8.487452 0 12 tcp 1040 ------- 0 4.6 12.0 418 14013
r 8.488284 0 12 tcp 1040 ------- 0 4.6 12.0 419 14015
r 8.525724 0 12 tcp 1040 ------- 0 4.6 12.0 420 14115
r 8.526556 0 12 tcp 1040 ------- 0 4.6 12.0 421 14117
r 8.527388 0 12 tcp 1040 ------- 0 4.6 12.0 422 14123
r 8.52822 0 12 tcp 1040 ------- 0 4.6 12.0 423 14125
r 8.529052 0 12 tcp 1040 ------- 0 4.6 12.0 424 14127
r 8.529884 0 12 tcp 1040 ------- 0 4.6 12.0 425 14129
r 8.530716 0 12 tcp 1040 ------- 0 4.6 12.0 426 14131
r 8.531548 0 12 tcp 1040 ------- 0 4.6 12.0 427 14133
r 8.53238 0 12 tcp 1040 ------- 0 4.6 12.0 428 14135
r 8.533212 0 12 tcp 1040 ------- 0 4.6 12.0 429 14139
r 8.534044 0 12 tcp 1040 ------- 0 4.6 12.0 430 14141
r 8.534876 0 12 tcp 1040 ------- 0 4.6 12.0 431 14144
r 8.535708 0 12 tcp 1040 ------- 0 4.6 12.0 432 14145
r 8.53654 0 12 tcp 1040 ------- 0 4.6 12.0 433 14147
r 8.537372 0 12 tcp 1040 ------- 0 4.6 12.0 434 14151
r 8.538204 0 12 tcp 1040 ------- 0 4.6 12.0 435 14153
r 8.539036 0 12 tcp 1040 ------- 0 4.6 12.0 436 14156
r 8.539868 0 12 tcp 1040 ------- 0 4.6 12.0 437 14159
r 8.5407 0 12 tcp 1040 ------- 0 4.6 12.0 438 14160
r 8.541532 0 12 tcp 1040 ------- 0 4.6 12.0 439 14161
r 8.5823 0 12 tcp 1040 ------- 0 4.6 12.0 440 14267
r 8.583132 0 12 tcp 1040 ------- 0 4.6 12.0 441 14269
r 8.583964 0 12 tcp 1040 ------- 0 4.6 12.0 442 14273
r 8.584796 0 12 tcp 1040 ------- 0 4.6 12.0 443 14277
r 8.585628 0 12 tcp 1040 ------- 0 4.6 12.0 444 14279
r 8.58646 0 12 tcp 1040 ------- 0 4.6 12.0 445 14281
r 8.587292 0 12 tcp 1040 ------- 0 4.6 12.0 446 14283
r 8.588124 0 12 tcp 1040 ------- 0 4.6 12.0 447 14285
r 8.588956 0 12 tcp 1040 ------- 0 4.6 12.0 448 14287
r 8.589788 0 12 tcp 1040 ------- 0 4.6 12.0 449 14289
r 8.59062 0 12 tcp 1040 ------- 0 4.6 12.0 450 14293
r 8.591452 0 12 tcp 1040 ------- 0 4.6 12.0 451 14296
r 8.592284 0 12 tcp 1040 ------- 0 4.6 12.0 452 14298
r 8.593116 0 12 tcp 1040 ------- 0 4.6 12.0 453 14299
r 8.593948 0 12 tcp 1040 ------- 0 4.6 12.0 454 14301
r 8.59478 0 12 tcp 1040 ------- 0 4.6 12.0 455 14305
r 8.595612 0 12 tcp 1040 ------- 0 4.6 12.0 456 14307
r 8.596444 0 12 tcp 1040 ------- 0 4.6 12.0 457 14311
r 8.597276 0 12 tcp 1040 ------- 0 4.6 12.0 458 14312
r 8.598108 0 12 tcp 1040 ------- 0 4.6 12.0 459 14313
r 8.645532 0 12 tcp 1040 ------- 0 4.6 12.0 460 14437
r 8.646364 0 12 tcp 1040 ------- 0 4.6 12.0 461 14441
r 8.647196 0 12 tcp 1040 ------- 0 4.6 12.0 462 14443
r 8.648028 0 12 tcp 1040 ------- 0 4.6 12.0 463 14445
r 8.64886 0 12 tcp 1040 ------- 0 4.6 12.0 464 14447
r 8.649692 0 12 tcp 1040 ------- 0 4.6 12.0 465 14449
r 8.650524 0 12 tcp 1040 ------- 0 4.6 12.0 466 14453
r 8.651356 0 12 tcp 1040 ------- 0 4.6 12.0 467 14455
r 8.652188 0 12 tcp 1040 ------- 0 4.6 12.0 468 14458
r 8.65302 0 12 tcp 1040 ------- 0 4.6 12.0 469 14459
r 8.653852 0 12 tcp 1040 ------- 0 4.6 12.0 470 14461
r 8.654684 0 12 tcp 1040 ------- 0 4.6 12.0 471 14465
r 8.655516 0 12 tcp 1040 ------- 0 4.6 12.0 472 14467
r 8.656348 0 12 tcp 1040 ------- 0 4.6 12.0 473 14471
r 8.65718 0 12 tcp 1040 ------- 0 4.6 12.0 474 14473
r 8.658012 0 12 tcp 1040 ------- 0 4.6 12.0 475 14475
r 8.658844 0 12 tcp 1040 ------- 0 4.6 12.0 476 14476
r 8.659676 0 12 tcp 1040 ------- 0 4.6 12.0 477 14477
r 8.660508 0 12 tcp 1040 ------- 0 4.6 12.0 478 14479
r 8.66134 0 12 tcp 1040 ------- 0 4.6 12.0 479 14481
r 8.710428 0 12 tcp 1040 ------- 0 4.6 12.0 480 14623
r 8.71126 0 12 tcp 1040 ------- 0 4.6 12.0 481 14626
r 8.712092 0 12 tcp 1040 ------- 0 4.6 12.0 482 14629
r 8.712924 0 12 tcp 1040 ------- 0 4.6 12.0 483 14630
r 8.713756 0 12 tcp 1040 ------- 0 4.6 12.0 484 14633
r 8.714588 0 12 tcp 1040 ------- 0 4.6 12.0 485 14634
r 8.71542 0 12 tcp 1040 ------- 0 4.6 12.0 486 14635
r 8.716252 0 12 tcp 1040 ------- 0 4.6 12.0 487 14637
r 8.717084 0 12 tcp 1040 ------- 0 4.6 12.0 488 14639
r 8.717916 0 12 tcp 1040 ------- 0 4.6 12.0 489 14642
r 8.718748 0 12 tcp 1040 ------- 0 4.6 12.0 490 14643
r 8.71958 0 12 tcp 1040 ------- 0 4.6 12.0 491 14645
r 8.720412 0 12 tcp 1040 ------- 0 4.6 12.0 492 14647
r 8.721244 0 12 tcp 1040 ------- 0 4.6 12.0 493 14653
r 8.722076 0 12 tcp 1040 ------- 0 4.6 12.0 494 14654
r 8.722908 0 12 tcp 1040 ------- 0 4.6 12.0 495 14655
r 8.72374 0 12 tcp 1040 ------- 0 4.6 12.0 496 14657
r 8.724572 0 12 tcp 1040 ------- 0 4.6 12.0 497 14659
r 8.725404 0 12 tcp 1040 ------- 0 4.6 12.0 498 14661
r 8.726236 0 12 tcp 1040 ------- 0 4.6 12.0 499 14665
r 8.76534 0 12 tcp 1040 ------- 0 4.6 12.0 500 14794
r 8.766172 0 12 tcp 1040 ------- 0 4.6 12.0 501 14795
r 8.767004 0 12 tcp 1040 ------- 0 4.6 12.0 502 14797
r 8.767836 0 12 tcp 1040 ------- 0 4.6 12.0 503 14799
r 8.768668 0 12 tcp 1040 ------- 0 4.6 12.0 504 14801
r 8.7695 0 12 tcp 1040 ------- 0 4.6 12.0 505 14803
r 8.770332 0 12 tcp 1040 ------- 0 4.6 12.0 506 14809
r 8.771164 0 12 tcp 1040 ------- 0 4.6 12.0 507 14811
r 8.771996 0 12 tcp 1040 ------- 0 4.6 12.0 508 14815
r 8.772828 0 12 tcp 1040 ------- 0 4.6 12.0 509 14817
r 8.77366 0 12 tcp 1040 ------- 0 4.6 12.0 510 14819
r 8.774492 0 12 tcp 1040 ------- 0 4.6 12.0 511 14821
r 8.775324 0 12 tcp 1040 ------- 0 4.6 12.0 512 14823
r 8.776156 0 12 tcp 1040 ------- 0 4.6 12.0 513 14827
r 8.776988 0 12 tcp 1040 ------- 0 4.6 12.0 514 14829
r 8.77782 0 12 tcp 1040 ------- 0 4.6 12.0 515 14832
r 8.778652 0 12 tcp 1040 ------- 0 4.6 12.0 516 14833
r 8.779484 0 12 tcp 1040 ------- 0 4.6 12.0 517 14835
r 8.780316 0 12 tcp 1040 ------- 0 4.6 12.0 518 14839
r 8.781148 0 12 tcp 1040 ------- 0 4.6 12.0 519 14841
r 8.816924 0 12 tcp 1040 ------- 0 4.6 12.0 520 14945
r 8.817756 0 12 tcp 1040 ------- 0 4.6 12.0 521 14947
r 8.818588 0 12 tcp 1040 ------- 0 4.6 12.0 522 14949
r 8.81942 0 12 tcp 1040 ------- 0 4.6 12.0 523 14951
r 8.820252 0 12 tcp 1040 ------- 0 4.6 12.0 524 14955
r 8.821084 0 12 tcp 1040 ------- 0 4.6 12.0 525 14959
r 8.821916 0 12 tcp 1040 ------- 0 4.6 12.0 526 14963
r 8.822748 0 12 tcp 1040 ------- 0 4.6 12.0 527 14965
r 8.82358 0 12 tcp 1040 ------- 0 4.6 12.0 528 14967
r 8.824412 0 12 tcp 1040 ------- 0 4.6 12.0 529 14969
r 8.825244 0 12 tcp 1040 ------- 0 4.6 12.0 530 14971
r 8.826076 0 12 tcp 1040 ------- 0 4.6 12.0 531 14975
r 8.826908 0 12 tcp 1040 ------- 0 4.6 12.0 532 14977
r 8.82774 0 12 tcp 1040 ------- 0 4.6 12.0 533 14980
r 8.828572 0 12 tcp 1040 ------- 0 4.6 12.0 534 14981
r 8.829404 0 12 tcp 1040 ------- 0 4.6 12.0 535 14983
r 8.830236 0 12 tcp 1040 ------- 0 4.6 12.0 536 14985
r 8.831068 0 12 tcp 1040 ------- 0 4.6 12.0 537 14989
r 8.8319 0 12 tcp 1040 ------- 0 4.6 12.0 538 14992
r 8.832732 0 12 tcp 1040 ------- 0 4.6 12.0 539 14995
r 8.870172 0 12 tcp 1040 ------- 0 4.6 12.0 540 15095
r 8.871004 0 12 tcp 1040 ------- 0 4.6 12.0 541 15096
r 8.871836 0 12 tcp 1040 ------- 0 4.6 12.0 542 15097
r 8.872668 0 12 tcp 1040 ------- 0 4.6 12.0 543 15099
r 8.8735 0 12 tcp 1040 ------- 0 4.6 12.0 544 15101
r 8.874332 0 12 tcp 1040 ------- 0 4.6 12.0 545 15103
r 8.875164 0 12 tcp 1040 ------- 0 4.6 12.0 546 15107
r 8.875996 0 12 tcp 1040 ------- 0 4.6 12.0 547 15111
r 8.876828 0 12 tcp 1040 ------- 0 4.6 12.0 548 15113
r 8.87766 0 12 tcp 1040 ------- 0 4.6 12.0 549 15117
r 8.878492 0 12 tcp 1040 ------- 0 4.6 12.0 550 15119
r 8.879324 0 12 tcp 1040 ------- 0 4.6 12.0 551 15121
r 8.880156 0 12 tcp 1040 ------- 0 4.6 12.0 552 15123
r 8.880988 0 12 tcp 1040 ------- 0 4.6 12.0 553 15125
r 8.88182 0 12 tcp 1040 ------- 0 4.6 12.0 554 15127
r 8.882652 0 12 tcp 1040 ------- 0 4.6 12.0 555 15130
r 8.883484 0 12 tcp 1040 ------- 0 4.6 12.0 556 15132
r 8.884316 0 12 tcp 1040 ------- 0 4.6 12.0 557 15133
r 8.885148 0 12 tcp 1040 ------- 0 4.6 12.0 558 15135
r 8.88598 0 12 tcp 1040 ------- 0 4.6 12.0 559 15139
r 8.909276 0 12 tcp 1040 ------- 0 4.6 12.0 560 15227