r 0.111174 0 9 tcp 40 ------- 0 4.3 9.0 0 3
r 0.140199 0 9 tcp 1040 ------- 0 4.3 9.0 1 26
r 0.141031 0 9 tcp 1040 ------- 0 4.3 9.0 2 27
r 0.16932 0 9 tcp 1040 ------- 0 4.3 9.0 3 72
r 0.170152 0 9 tcp 1040 ------- 0 4.3 9.0 4 73
r 0.170984 0 9 tcp 1040 ------- 0 4.3 9.0 5 74
r 0.171816 0 9 tcp 1040 ------- 0 4.3 9.0 6 75
r 0.212584 0 9 tcp 1040 ------- 0 4.3 9.0 7 150
r 0.213416 0 9 tcp 1040 ------- 0 4.3 9.0 8 151
r 0.214248 0 9 tcp 1040 ------- 0 4.3 9.0 9 153
r 0.21508 0 9 tcp 1040 ------- 0 4.3 9.0 10 154
r 0.215912 0 9 tcp 1040 ------- 0 4.3 9.0 11 156
r 0.216744 0 9 tcp 1040 ------- 0 4.3 9.0 12 157
r 0.217576 0 9 tcp 1040 ------- 0 4.3 9.0 13 159
r 0.218408 0 9 tcp 1040 ------- 0 4.3 9.0 14 160
r 0.27748 0 9 tcp 1040 ------- 0 4.3 9.0 15 306
r 0.278312 0 9 tcp 1040 ------- 0 4.3 9.0 17 309
r 0.279144 0 9 tcp 1040 ------- 0 4.3 9.0 19 312
r 0.279976 0 9 tcp 1040 ------- 0 4.3 9.0 21 315
r 0.280808 0 9 tcp 1040 ------- 0 4.3 9.0 23 318
r 0.28164 0 9 tcp 1040 ------- 0 4.3 9.0 25 321
r 0.282472 0 9 tcp 1040 ------- 0 4.3 9.0 27 324
r 0.283304 0 9 tcp 1040 ------- 0 4.3 9.0 29 327
r 0.334056 0 9 tcp 1040 ------- 0 4.3 9.0 31 506
r 0.334888 0 9 tcp 1040 ------- 0 4.3 9.0 32 507
r 0.33572 0 9 tcp 1040 ------- 0 4.3 9.0 33 509
r 0.336552 0 9 tcp 1040 ------- 0 4.3 9.0 34 511
r 0.337384 0 9 tcp 1040 ---A--- 0 4.3 9.0 16 513
r 0.365672 0 9 tcp 1040 ------- 0 4.3 9.0 18 616
r 0.366504 0 9 tcp 1040 ------- 0 4.3 9.0 19 617
r 0.395625 0 9 tcp 1040 ------- 0 4.3 9.0 20 670
r 0.396457 0 9 tcp 1040 ------- 0 4.3 9.0 21 671
r 0.397289 0 9 tcp 1040 ------- 0 4.3 9.0 22 672
r 0.398121 0 9 tcp 1040 ------- 0 4.3 9.0 23 673
r 0.433897 0 9 tcp 1040 ------- 0 4.3 9.0 24 748
r 0.434729 0 9 tcp 1040 ------- 0 4.3 9.0 25 749
r 0.435561 0 9 tcp 1040 ------- 0 4.3 9.0 26 751
r 0.436393 0 9 tcp 1040 ------- 0 4.3 9.0 27 753
r 0.437225 0 9 tcp 1040 ------- 0 4.3 9.0 28 754
r 0.438057 0 9 tcp 1040 ------- 0 4.3 9.0 29 756
r 0.491305 0 9 tcp 1040 ------- 0 4.3 9.0 30 863
r 0.492137 0 9 tcp 1040 ------- 0 4.3 9.0 31 864
r 0.492969 0 9 tcp 1040 ------- 0 4.3 9.0 32 866
r 0.493801 0 9 tcp 1040 ------- 0 4.3 9.0 33 868
r 0.494633 0 9 tcp 1040 ------- 0 4.3 9.0 34 869
r 0.495465 0 9 tcp 1040 ------- 0 4.3 9.0 35 871
r 0.496297 0 9 tcp 1040 ------- 0 4.3 9.0 36 873
r 0.497129 0 9 tcp 1040 ------- 0 4.3 9.0 37 874
r 0.497961 0 9 tcp 1040 ------- 0 4.3 9.0 38 876
r 0.552041 0 9 tcp 1040 ------- 0 4.3 9.0 39 1018
r 0.552873 0 9 tcp 1040 ------- 0 4.3 9.0 40 1019
r 0.553705 0 9 tcp 1040 ------- 0 4.3 9.0 41 1020
r 0.554537 0 9 tcp 1040 ------- 0 4.3 9.0 42 1021
r 0.555369 0 9 tcp 1040 ------- 0 4.3 9.0 43 1023
r 0.556201 0 9 tcp 1040 ------- 0 4.3 9.0 44 1025
r 0.557033 0 9 tcp 1040 ------- 0 4.3 9.0 45 1031
r 0.557865 0 9 tcp 1040 ------- 0 4.3 9.0 46 1033
r 0.608617 0 9 tcp 1040 ------- 0 4.3 9.0 47 1159
r 0.609449 0 9 tcp 1040 ------- 0 4.3 9.0 48 1161
r 0.610281 0 9 tcp 1040 ------- 0 4.3 9.0 49 1163
r 0.611113 0 9 tcp 1040 ------- 0 4.3 9.0 50 1165
r 0.611945 0 9 tcp 1040 ------- 0 4.3 9.0 51 1166
r 0.612777 0 9 tcp 1040 ------- 0 4.3 9.0 52 1168
r 0.613609 0 9 tcp 1040 ------- 0 4.3 9.0 53 1170
r 0.614441 0 9 tcp 1040 ------- 0 4.3 9.0 54 1172
r 0.615273 0 9 tcp 1040 ------- 0 4.3 9.0 55 1174
r 0.647721 0 9 tcp 1040 ------- 0 4.3 9.0 56 1274
r 0.648553 0 9 tcp 1040 ------- 0 4.3 9.0 57 1276
r 0.649385 0 9 tcp 1040 ------- 0 4.3 9.0 58 1278
r 0.650217 0 9 tcp 1040 ------- 0 4.3 9.0 59 1280
r 0.651049 0 9 tcp 1040 ------- 0 4.3 9.0 60 1282
r 0.651881 0 9 tcp 1040 ------- 0 4.3 9.0 61 1283
r 0.652713 0 9 tcp 1040 ------- 0 4.3 9.0 62 1285
r 0.653545 0 9 tcp 1040 ------- 0 4.3 9.0 63 1287
r 0.654377 0 9 tcp 1040 ------- 0 4.3 9.0 64 1289
r 0.655209 0 9 tcp 1040 ------- 0 4.3 9.0 65 1291
r 0.693481 0 9 tcp 1040 ------- 0 4.3 9.0 66 1376
r 0.694313 0 9 tcp 1040 ------- 0 4.3 9.0 67 1378
r 0.695145 0 9 tcp 1040 ------- 0 4.3 9.0 68 1380
r 0.695977 0 9 tcp 1040 ------- 0 4.3 9.0 69 1382
r 0.696809 0 9 tcp 1040 ------- 0 4.3 9.0 70 1384
r 0.697641 0 9 tcp 1040 ------- 0 4.3 9.0 71 1386
r 0.698473 0 9 tcp 1040 ------- 0 4.3 9.0 72 1388
r 0.699305 0 9 tcp 1040 ------- 0 4.3 9.0 73 1389
r 0.700137 0 9 tcp 1040 ------- 0 4.3 9.0 74 1391
r 0.700969 0 9 tcp 1040 ------- 0 4.3 9.0 75 1393
r 0.701801 0 9 tcp 1040 ------- 0 4.3 9.0 76 1395
r 0.748393 0 9 tcp 1040 ------- 0 4.3 9.0 77 1497
r 0.749225 0 9 tcp 1040 ------- 0 4.3 9.0 78 1499
r 0.750057 0 9 tcp 1040 ------- 0 4.3 9.0 79 1501
r 0.750889 0 9 tcp 1040 ------- 0 4.3 9.0 80 1503
r 0.751721 0 9 tcp 1040 ------- 0 4.3 9.0 81 1505
r 0.752553 0 9 tcp 1040 ------- 0 4.3 9.0 82 1507
r 0.753385 0 9 tcp 1040 ------- 0 4.3 9.0 83 1509
r 0.754217 0 9 tcp 1040 ------- 0 4.3 9.0 84 1511
r 0.755049 0 9 tcp 1040 ------- 0 4.3 9.0 85 1512
r 0.755881 0 9 tcp 1040 ------- 0 4.3 9.0 86 1514
r 0.756713 0 9 tcp 1040 ------- 0 4.3 9.0 87 1516
r 0.757545 0 9 tcp 1040 ------- 0 4.3 9.0 88 1518
r 0.809129 0 9 tcp 1040 ------- 0 4.3 9.0 89 1636
r 0.809961 0 9 tcp 1040 ------- 0 4.3 9.0 90 1638
r 0.810793 0 9 tcp 1040 ------- 0 4.3 9.0 91 1640
r 0.811625 0 9 tcp 1040 ------- 0 4.3 9.0 92 1642
r 0.812457 0 9 tcp 1040 ------- 0 4.3 9.0 93 1644
r 0.813289 0 9 tcp 1040 ------- 0 4.3 9.0 94 1646
r 0.814121 0 9 tcp 1040 ------- 0 4.3 9.0 95 1648
r 0.814953 0 9 tcp 1040 ------- 0 4.3 9.0 96 1650
r 0.815785 0 9 tcp 1040 ------- 0 4.3 9.0 97 1652
r 0.816617 0 9 tcp 1040 ------- 0 4.3 9.0 98 1654
r 0.817449 0 9 tcp 1040 ------- 0 4.3 9.0 99 1655
r 0.818281 0 9 tcp 1040 ------- 0 4.3 9.0 100 1657
r 0.819113 0 9 tcp 1040 ------- 0 4.3 9.0 101 1659
r 0.874025 0 9 tcp 1040 ------- 0 4.3 9.0 102 1793
r 0.874857 0 9 tcp 1040 ------- 0 4.3 9.0 103 1795
r 0.875689 0 9 tcp 1040 ------- 0 4.3 9.0 104 1797
r 0.876521 0 9 tcp 1040 ------- 0 4.3 9.0 105 1799
r 0.877353 0 9 tcp 1040 ------- 0 4.3 9.0 106 1801
r 0.878185 0 9 tcp 1040 ------- 0 4.3 9.0 107 1803
r 0.879017 0 9 tcp 1040 ------- 0 4.3 9.0 108 1805
r 0.879849 0 9 tcp 1040 ------- 0 4.3 9.0 109 1807
r 0.880681 0 9 tcp 1040 ------- 0 4.3 9.0 110 1809
r 0.881513 0 9 tcp 1040 ------- 0 4.3 9.0 111 1811
r 0.882345 0 9 tcp 1040 ------- 0 4.3 9.0 112 1813
r 0.883177 0 9 tcp 1040 ------- 0 4.3 9.0 114 1816
r 0.884009 0 9 tcp 1040 ------- 0 4.3 9.0 115 1818
r 0.938921 0 9 tcp 1040 ------- 0 4.3 9.0 116 1952
r 0.939753 0 9 tcp 1040 ------- 0 4.3 9.0 117 1954
r 0.940585 0 9 tcp 1040 ------- 0 4.3 9.0 118 1956
r 0.941417 0 9 tcp 1040 ------- 0 4.3 9.0 119 1958
r 0.942249 0 9 tcp 1040 ------- 0 4.3 9.0 120 1960
r 0.943081 0 9 tcp 1040 ------- 0 4.3 9.0 121 1962
r 0.943913 0 9 tcp 1040 ------- 0 4.3 9.0 122 1964
r 0.944745 0 9 tcp 1040 ------- 0 4.3 9.0 123 1966
r 0.945577 0 9 tcp 1040 ------- 0 4.3 9.0 124 1968
r 0.946409 0 9 tcp 1040 ------- 0 4.3 9.0 125 1970
r 0.947241 0 9 tcp 1040 ------- 0 4.3 9.0 126 1972
r 0.948073 0 9 tcp 1040 ------- 0 4.3 9.0 127 1974
r 0.948905 0 9 tcp 1040 ------- 0 4.3 9.0 128 1976
r 0.983849 0 9 tcp 1040 ---A--- 0 4.3 9.0 113 2085
r 1.010474 0 9 tcp 1040 ------- 0 4.3 9.0 129 2153
r 1.011306 0 9 tcp 1040 ------- 0 4.3 9.0 130 2154
r 1.040426 0 9 tcp 1040 ------- 0 4.3 9.0 131 2206
r 1.041258 0 9 tcp 1040 ------- 0 4.3 9.0 132 2207
r 1.04209 0 9 tcp 1040 ------- 0 4.3 9.0 133 2208
r 1.042922 0 9 tcp 1040 ------- 0 4.3 9.0 134 2209
r 1.076202 0 9 tcp 1040 ------- 0 4.3 9.0 135 2284
r 1.077034 0 9 tcp 1040 ------- 0 4.3 9.0 136 2285
r 1.077866 0 9 tcp 1040 ------- 0 4.3 9.0 137 2287
r 1.078698 0 9 tcp 1040 ------- 0 4.3 9.0 138 2288
r 1.07953 0 9 tcp 1040 ------- 0 4.3 9.0 139 2290
r 1.080362 0 9 tcp 1040 ------- 0 4.3 9.0 140 2291
r 1.081194 0 9 tcp 1040 ------- 0 4.3 9.0 141 2293
r 1.122794 0 9 tcp 1040 ------- 0 4.3 9.0 142 2383
r 1.123626 0 9 tcp 1040 ------- 0 4.3 9.0 143 2385
r 1.124458 0 9 tcp 1040 ------- 0 4.3 9.0 144 2387
r 1.12529 0 9 tcp 1040 ------- 0 4.3 9.0 145 2389
r 1.126122 0 9 tcp 1040 ------- 0 4.3 9.0 146 2391
r 1.126954 0 9 tcp 1040 ------- 0 4.3 9.0 147 2393
r 1.127786 0 9 tcp 1040 ------- 0 4.3 9.0 148 2395
r 1.128618 0 9 tcp 1040 ------- 0 4.3 9.0 149 2396
r 1.177706 0 9 tcp 1040 ------- 0 4.3 9.0 150 2505
r 1.178538 0 9 tcp 1040 ------- 0 4.3 9.0 151 2507
r 1.17937 0 9 tcp 1040 ------- 0 4.3 9.0 152 2509
r 1.180202 0 9 tcp 1040 ------- 0 4.3 9.0 153 2511
r 1.181034 0 9 tcp 1040 ------- 0 4.3 9.0 154 2513
r 1.181866 0 9 tcp 1040 ------- 0 4.3 9.0 155 2515
r 1.182698 0 9 tcp 1040 ------- 0 4.3 9.0 156 2517
r 1.18353 0 9 tcp 1040 ------- 0 4.3 9.0 157 2519
r 1.184362 0 9 tcp 1040 ------- 0 4.3 9.0 158 2520
r 1.240106 0 9 tcp 1040 ------- 0 4.3 9.0 159 2646
r 1.240938 0 9 tcp 1040 ------- 0 4.3 9.0 160 2648
r 1.24177 0 9 tcp 1040 ------- 0 4.3 9.0 161 2650
r 1.242602 0 9 tcp 1040 ------- 0 4.3 9.0 162 2652
r 1.243434 0 9 tcp 1040 ------- 0 4.3 9.0 163 2654
r 1.244266 0 9 tcp 1040 ------- 0 4.3 9.0 164 2656
r 1.245098 0 9 tcp 1040 ------- 0 4.3 9.0 165 2658
r 1.24593 0 9 tcp 1040 ------- 0 4.3 9.0 166 2660
r 1.246762 0 9 tcp 1040 ------- 0 4.3 9.0 167 2662
r 1.305002 0 9 tcp 1040 ------- 0 4.3 9.0 168 2800
r 1.305834 0 9 tcp 1040 ------- 0 4.3 9.0 170 2803
r 1.306666 0 9 tcp 1040 ------- 0 4.3 9.0 171 2805
r 1.307498 0 9 tcp 1040 ------- 0 4.3 9.0 172 2807
r 1.30833 0 9 tcp 1040 ------- 0 4.3 9.0 173 2809
r 1.309162 0 9 tcp 1040 ------- 0 4.3 9.0 174 2811
r 1.309994 0 9 tcp 1040 ------- 0 4.3 9.0 175 2813
r 1.310826 0 9 tcp 1040 ------- 0 4.3 9.0 176 2815
r 1.311658 0 9 tcp 1040 ------- 0 4.3 9.0 177 2817
r 1.365738 0 9 tcp 1040 ------- 0 4.3 9.0 178 2960
r 1.36657 0 9 tcp 1040 ------- 0 4.3 9.0 179 2962
r 1.367402 0 9 tcp 1040 ------- 0 4.3 9.0 180 2964
r 1.368234 0 9 tcp 1040 ---A--- 0 4.3 9.0 169 2966
r 1.404842 0 9 tcp 1040 ------- 0 4.3 9.0 181 3083
r 1.405674 0 9 tcp 1040 ------- 0 4.3 9.0 182 3084
r 1.431467 0 9 tcp 1040 ------- 0 4.3 9.0 183 3150
r 1.432299 0 9 tcp 1040 ------- 0 4.3 9.0 184 3151
r 1.433131 0 9 tcp 1040 ------- 0 4.3 9.0 185 3153
r 1.433963 0 9 tcp 1040 ------- 0 4.3 9.0 186 3154
r 1.463915 0 9 tcp 1040 ------- 0 4.3 9.0 187 3212
r 1.464747 0 9 tcp 1040 ------- 0 4.3 9.0 188 3213
r 1.465579 0 9 tcp 1040 ------- 0 4.3 9.0 189 3215
r 1.466411 0 9 tcp 1040 ------- 0 4.3 9.0 190 3217
r 1.467243 0 9 tcp 1040 ------- 0 4.3 9.0 191 3219
r 1.500523 0 9 tcp 1040 ------- 0 4.3 9.0 192 3295
r 1.501355 0 9 tcp 1040 ------- 0 4.3 9.0 193 3297
r 1.502187 0 9 tcp 1040 ------- 0 4.3 9.0 194 3299
r 1.503019 0 9 tcp 1040 ------- 0 4.3 9.0 195 3300
r 1.503851 0 9 tcp 1040 ------- 0 4.3 9.0 196 3302
r 1.504683 0 9 tcp 1040 ------- 0 4.3 9.0 197 3304
r 1.545451 0 9 tcp 1040 ------- 0 4.3 9.0 198 3393
r 1.546283 0 9 tcp 1040 ------- 0 4.3 9.0 199 3395
r 1.547115 0 9 tcp 1040 ------- 0 4.3 9.0 200 3397
r 1.547947 0 9 tcp 1040 ------- 0 4.3 9.0 201 3399
r 1.548779 0 9 tcp 1040 ------- 0 4.3 9.0 202 3400
r 1.549611 0 9 tcp 1040 ------- 0 4.3 9.0 203 3402
r 1.550443 0 9 tcp 1040 ------- 0 4.3 9.0 204 3404
r 1.598699 0 9 tcp 1040 ------- 0 4.3 9.0 205 3511
r 1.599531 0 9 tcp 1040 ------- 0 4.3 9.0 206 3513
r 1.600363 0 9 tcp 1040 ------- 0 4.3 9.0 207 3515
r 1.601195 0 9 tcp 1040 ------- 0 4.3 9.0 208 3517
r 1.602027 0 9 tcp 1040 ------- 0 4.3 9.0 209 3519
r 1.602859 0 9 tcp 1040 ------- 0 4.3 9.0 210 3521
r 1.603691 0 9 tcp 1040 ------- 0 4.3 9.0 211 3522
r 1.604523 0 9 tcp 1040 ------- 0 4.3 9.0 212 3524
r 1.659435 0 9 tcp 1040 ------- 0 4.3 9.0 213 3648
r 1.660267 0 9 tcp 1040 ------- 0 4.3 9.0 214 3650
r 1.661099 0 9 tcp 1040 ------- 0 4.3 9.0 215 3652
r 1.661931 0 9 tcp 1040 ------- 0 4.3 9.0 216 3654
r 1.662763 0 9 tcp 1040 ------- 0 4.3 9.0 217 3656
r 1.663595 0 9 tcp 1040 ------- 0 4.3 9.0 218 3658
r 1.664427 0 9 tcp 1040 ------- 0 4.3 9.0 219 3660
r 1.665259 0 9 tcp 1040 ------- 0 4.3 9.0 220 3661
r 1.666091 0 9 tcp 1040 ------- 0 4.3 9.0 221 3663
r 1.724331 0 9 tcp 1040 ------- 0 4.3 9.0 222 3804
r 1.725163 0 9 tcp 1040 ------- 0 4.3 9.0 223 3806
r 1.725995 0 9 tcp 1040 ------- 0 4.3 9.0 224 3808
r 1.726827 0 9 tcp 1040 ------- 0 4.3 9.0 225 3810
r 1.727659 0 9 tcp 1040 ------- 0 4.3 9.0 226 3812
r 1.728491 0 9 tcp 1040 ------- 0 4.3 9.0 227 3814
r 1.729323 0 9 tcp 1040 ------- 0 4.3 9.0 228 3816
r 1.730155 0 9 tcp 1040 ------- 0 4.3 9.0 229 3818
r 1.730987 0 9 tcp 1040 ------- 0 4.3 9.0 230 3820
r 1.789227 0 9 tcp 1040 ------- 0 4.3 9.0 232 3965
r 1.790059 0 9 tcp 1040 ------- 0 4.3 9.0 233 3967
r 1.790891 0 9 tcp 1040 ------- 0 4.3 9.0 234 3969
r 1.791723 0 9 tcp 1040 ------- 0 4.3 9.0 235 3971
r 1.792555 0 9 tcp 1040 ------- 0 4.3 9.0 236 3973
r 1.793387 0 9 tcp 1040 ------- 0 4.3 9.0 237 3975
r 1.794219 0 9 tcp 1040 ------- 0 4.3 9.0 238 3977
r 1.795051 0 9 tcp 1040 ------- 0 4.3 9.0 239 3979
r 1.795883 0 9 tcp 1040 ------- 0 4.3 9.0 240 3981
r 1.828331 0 9 tcp 1040 ------- 0 4.3 9.0 241 4090
r 1.829163 0 9 tcp 1040 ------- 0 4.3 9.0 242 4092
r 1.829995 0 9 tcp 1040 ---A--- 0 4.3 9.0 231 4094
r 1.854956 0 9 tcp 1040 ------- 0 4.3 9.0 243 4158
r 1.855788 0 9 tcp 1040 ------- 0 4.3 9.0 244 4159
r 1.887405 0 9 tcp 1040 ------- 0 4.3 9.0 245 4210
r 1.888237 0 9 tcp 1040 ------- 0 4.3 9.0 246 4211
r 1.889069 0 9 tcp 1040 ------- 0 4.3 9.0 247 4213
r 1.889901 0 9 tcp 1040 ------- 0 4.3 9.0 248 4214
r 1.921517 0 9 tcp 1040 ------- 0 4.3 9.0 249 4286
r 1.922349 0 9 tcp 1040 ------- 0 4.3 9.0 250 4287
r 1.923181 0 9 tcp 1040 ------- 0 4.3 9.0 251 4289
r 1.924013 0 9 tcp 1040 ------- 0 4.3 9.0 252 4291
r 1.924845 0 9 tcp 1040 ------- 0 4.3 9.0 253 4293
r 1.963117 0 9 tcp 1040 ------- 0 4.3 9.0 254 4377
r 1.963949 0 9 tcp 1040 ------- 0 4.3 9.0 255 4379
r 1.964781 0 9 tcp 1040 ------- 0 4.3 9.0 256 4381
r 1.965613 0 9 tcp 1040 ------- 0 4.3 9.0 257 4382
r 1.966445 0 9 tcp 1040 ------- 0 4.3 9.0 258 4384
r 1.967277 0 9 tcp 1040 ------- 0 4.3 9.0 259 4386
r 2.012205 0 9 tcp 1040 ------- 0 4.3 9.0 260 4486
r 2.013037 0 9 tcp 1040 ------- 0 4.3 9.0 261 4488
r 2.013869 0 9 tcp 1040 ------- 0 4.3 9.0 262 4490
r 2.014701 0 9 tcp 1040 ------- 0 4.3 9.0 263 4492
r 2.015533 0 9 tcp 1040 ------- 0 4.3 9.0 264 4493
r 2.016365 0 9 tcp 1040 ------- 0 4.3 9.0 265 4495
r 2.017197 0 9 tcp 1040 ------- 0 4.3 9.0 266 4497
r 2.069613 0 9 tcp 1040 ------- 0 4.3 9.0 267 4614
r 2.070445 0 9 tcp 1040 ------- 0 4.3 9.0 268 4616
r 2.071277 0 9 tcp 1040 ------- 0 4.3 9.0 269 4618
r 2.072109 0 9 tcp 1040 ------- 0 4.3 9.0 270 4620
r 2.072941 0 9 tcp 1040 ------- 0 4.3 9.0 271 4622
r 2.073773 0 9 tcp 1040 ------- 0 4.3 9.0 272 4624
r 2.074605 0 9 tcp 1040 ------- 0 4.3 9.0 273 4625
r 2.075437 0 9 tcp 1040 ------- 0 4.3 9.0 274 4627
r 2.134509 0 9 tcp 1040 ------- 0 4.3 9.0 275 4762
r 2.135341 0 9 tcp 1040 ------- 0 4.3 9.0 276 4764
r 2.136173 0 9 tcp 1040 ------- 0 4.3 9.0 277 4766
r 2.137005 0 9 tcp 1040 ------- 0 4.3 9.0 278 4768
r 2.137837 0 9 tcp 1040 ------- 0 4.3 9.0 279 4770
r 2.138669 0 9 tcp 1040 ------- 0 4.3 9.0 280 4772
r 2.139501 0 9 tcp 1040 ------- 0 4.3 9.0 281 4774
r 2.140333 0 9 tcp 1040 ------- 0 4.3 9.0 283 4777
r 2.199405 0 9 tcp 1040 ------- 0 4.3 9.0 284 4927
r 2.200237 0 9 tcp 1040 ------- 0 4.3 9.0 285 4929
r 2.201069 0 9 tcp 1040 ------- 0 4.3 9.0 286 4931
r 2.201901 0 9 tcp 1040 ------- 0 4.3 9.0 287 4933
r 2.202733 0 9 tcp 1040 ------- 0 4.3 9.0 288 4935
r 2.203565 0 9 tcp 1040 ------- 0 4.3 9.0 289 4937
r 2.204397 0 9 tcp 1040 ------- 0 4.3 9.0 290 4939
r 2.205229 0 9 tcp 1040 ------- 0 4.3 9.0 291 4941
r 2.258477 0 9 tcp 1040 ------- 0 4.3 9.0 292 5076
r 2.259309 0 9 tcp 1040 ---A--- 0 4.3 9.0 282 5078
r 2.283438 0 9 tcp 1040 ------- 0 4.3 9.0 293 5167
r 2.28427 0 9 tcp 1040 ------- 0 4.3 9.0 294 5168
r 2.30923 0 9 tcp 1040 ------- 0 4.3 9.0 295 5209
r 2.310062 0 9 tcp 1040 ------- 0 4.3 9.0 296 5210
r 2.310894 0 9 tcp 1040 ------- 0 4.3 9.0 297 5212
r 2.311726 0 9 tcp 1040 ------- 0 4.3 9.0 298 5213
r 2.34251 0 9 tcp 1040 ------- 0 4.3 9.0 299 5273
r 2.343342 0 9 tcp 1040 ------- 0 4.3 9.0 300 5275
r 2.344174 0 9 tcp 1040 ------- 0 4.3 9.0 301 5277
r 2.345006 0 9 tcp 1040 ------- 0 4.3 9.0 302 5279
r 2.377454 0 9 tcp 1040 ------- 0 4.3 9.0 303 5355
r 2.378286 0 9 tcp 1040 ------- 0 4.3 9.0 304 5356
r 2.379118 0 9 tcp 1040 ------- 0 4.3 9.0 305 5358
r 2.37995 0 9 tcp 1040 ------- 0 4.3 9.0 306 5360
r 2.380782 0 9 tcp 1040 ------- 0 4.3 9.0 307 5362
r 2.420718 0 9 tcp 1040 ------- 0 4.3 9.0 308 5449
r 2.42155 0 9 tcp 1040 ------- 0 4.3 9.0 309 5451
r 2.422382 0 9 tcp 1040 ------- 0 4.3 9.0 310 5452
r 2.423214 0 9 tcp 1040 ------- 0 4.3 9.0 311 5454
r 2.424046 0 9 tcp 1040 ------- 0 4.3 9.0 312 5456
r 2.424878 0 9 tcp 1040 ------- 0 4.3 9.0 313 5458
r 2.472302 0 9 tcp 1040 ------- 0 4.3 9.0 314 5563
r 2.473134 0 9 tcp 1040 ------- 0 4.3 9.0 315 5565
r 2.473966 0 9 tcp 1040 ------- 0 4.3 9.0 316 5567
r 2.474798 0 9 tcp 1040 ------- 0 4.3 9.0 317 5569
r 2.47563 0 9 tcp 1040 ------- 0 4.3 9.0 318 5570
r 2.476462 0 9 tcp 1040 ------- 0 4.3 9.0 319 5572
r 2.477294 0 9 tcp 1040 ------- 0 4.3 9.0 320 5574
r 2.532206 0 9 tcp 1040 ------- 0 4.3 9.0 321 5697
r 2.533038 0 9 tcp 1040 ------- 0 4.3 9.0 322 5699
r 2.53387 0 9 tcp 1040 ------- 0 4.3 9.0 323 5701
r 2.534702 0 9 tcp 1040 ------- 0 4.3 9.0 324 5703
r 2.535534 0 9 tcp 1040 ------- 0 4.3 9.0 325 5705
r 2.536366 0 9 tcp 1040 ------- 0 4.3 9.0 326 5706
r 2.537198 0 9 tcp 1040 ------- 0 4.3 9.0 327 5708
r 2.53803 0 9 tcp 1040 ------- 0 4.3 9.0 328 5710
r 2.597102 0 9 tcp 1040 ------- 0 4.3 9.0 329 5851
r 2.597934 0 9 tcp 1040 ------- 0 4.3 9.0 330 5853
r 2.598766 0 9 tcp 1040 ------- 0 4.3 9.0 331 5855
r 2.599598 0 9 tcp 1040 ------- 0 4.3 9.0 332 5857
r 2.60043 0 9 tcp 1040 ------- 0 4.3 9.0 333 5859
r 2.601262 0 9 tcp 1040 ------- 0 4.3 9.0 334 5861
r 2.602094 0 9 tcp 1040 ------- 0 4.3 9.0 335 5863
r 2.602926 0 9 tcp 1040 ------- 0 4.3 9.0 337 5866
r 2.661998 0 9 tcp 1040 ------- 0 4.3 9.0 338 6013
r 2.66283 0 9 tcp 1040 ------- 0 4.3 9.0 339 6015
r 2.663662 0 9 tcp 1040 ------- 0 4.3 9.0 340 6017
r 2.664494 0 9 tcp 1040 ------- 0 4.3 9.0 341 6019
r 2.665326 0 9 tcp 1040 ------- 0 4.3 9.0 342 6021
r 2.666158 0 9 tcp 1040 ------- 0 4.3 9.0 343 6023
r 2.66699 0 9 tcp 1040 ------- 0 4.3 9.0 344 6025
r 2.667822 0 9 tcp 1040 ------- 0 4.3 9.0 345 6027
r 2.706926 0 9 tcp 1040 ------- 0 4.3 9.0 346 6145
r 2.707758 0 9 tcp 1040 ---A--- 0 4.3 9.0 336 6147
r 2.733551 0 9 tcp 1040 ------- 0 4.3 9.0 347 6215
r 2.734383 0 9 tcp 1040 ------- 0 4.3 9.0 348 6216
r 2.764336 0 9 tcp 1040 ------- 0 4.3 9.0 349 6263
r 2.765168 0 9 tcp 1040 ------- 0 4.3 9.0 350 6264
r 2.766 0 9 tcp 1040 ------- 0 4.3 9.0 351 6266
r 2.766832 0 9 tcp 1040 ------- 0 4.3 9.0 352 6267
r 2.797616 0 9 tcp 1040 ------- 0 4.3 9.0 353 6335
r 2.798448 0 9 tcp 1040 ------- 0 4.3 9.0 354 6337
r 2.79928 0 9 tcp 1040 ------- 0 4.3 9.0 355 6339
r 2.800112 0 9 tcp 1040 ------- 0 4.3 9.0 356 6341
r 2.835056 0 9 tcp 1040 ------- 0 4.3 9.0 357 6420
r 2.835888 0 9 tcp 1040 ------- 0 4.3 9.0 358 6421
r 2.83672 0 9 tcp 1040 ------- 0 4.3 9.0 359 6423
r 2.837552 0 9 tcp 1040 ------- 0 4.3 9.0 360 6425
r 2.838384 0 9 tcp 1040 ------- 0 4.3 9.0 361 6427
r 2.880816 0 9 tcp 1040 ------- 0 4.3 9.0 362 6520
r 2.881648 0 9 tcp 1040 ------- 0 4.3 9.0 363 6522
r 2.88248 0 9 tcp 1040 ------- 0 4.3 9.0 364 6523
r 2.883312 0 9 tcp 1040 ------- 0 4.3 9.0 365 6525
r 2.884144 0 9 tcp 1040 ------- 0 4.3 9.0 366 6527
r 2.884976 0 9 tcp 1040 ------- 0 4.3 9.0 367 6529
r 2.934896 0 9 tcp 1040 ------- 0 4.3 9.0 368 6640
r 2.935728 0 9 tcp 1040 ------- 0 4.3 9.0 369 6642
r 2.93656 0 9 tcp 1040 ------- 0 4.3 9.0 370 6644
r 2.937392 0 9 tcp 1040 ------- 0 4.3 9.0 371 6646
r 2.938224 0 9 tcp 1040 ------- 0 4.3 9.0 372 6647
r 2.939056 0 9 tcp 1040 ------- 0 4.3 9.0 373 6649
r 2.939888 0 9 tcp 1040 ------- 0 4.3 9.0 374 6651
r 2.997296 0 9 tcp 1040 ------- 0 4.3 9.0 375 6780
r 2.998128 0 9 tcp 1040 ------- 0 4.3 9.0 376 6782
r 2.99896 0 9 tcp 1040 ------- 0 4.3 9.0 377 6784
r 2.999792 0 9 tcp 1040 ------- 0 4.3 9.0 378 6786
r 3.000624 0 9 tcp 1040 ------- 0 4.3 9.0 379 6788
r 3.001456 0 9 tcp 1040 ------- 0 4.3 9.0 380 6789
r 3.002288 0 9 tcp 1040 ------- 0 4.3 9.0 381 6791
r 3.00312 0 9 tcp 1040 ------- 0 4.3 9.0 382 6793
r 3.062192 0 9 tcp 1040 ------- 0 4.3 9.0 383 6960
r 3.063024 0 9 tcp 1040 ------- 0 4.3 9.0 384 6962
r 3.063856 0 9 tcp 1040 ------- 0 4.3 9.0 385 6964
r 3.064688 0 9 tcp 1040 ------- 0 4.3 9.0 386 6966
r 3.06552 0 9 tcp 1040 ------- 0 4.3 9.0 387 6983
r 3.066352 0 9 tcp 1040 ------- 0 4.3 9.0 388 6984
r 3.067184 0 9 tcp 1040 ------- 0 4.3 9.0 389 6985
r 3.068016 0 9 tcp 1040 ------- 0 4.3 9.0 390 6986
r 3.068848 0 9 tcp 1040 ------- 0 4.3 9.0 391 6987
r 3.127088 0 9 tcp 1040 ------- 0 4.3 9.0 392 7164
r 3.12792 0 9 tcp 1040 ------- 0 4.3 9.0 393 7165
r 3.128752 0 9 tcp 1040 ------- 0 4.3 9.0 394 7166
r 3.129584 0 9 tcp 1040 ------- 0 4.3 9.0 395 7167
r 3.130416 0 9 tcp 1040 ------- 0 4.3 9.0 396 7168
r 3.131248 0 9 tcp 1040 ------- 0 4.3 9.0 397 7169
r 3.13208 0 9 tcp 1040 ------- 0 4.3 9.0 398 7171
r 3.132912 0 9 tcp 1040 ------- 0 4.3 9.0 399 7173
r 3.133744 0 9 tcp 1040 ------- 0 4.3 9.0 400 7174
r 3.134576 0 9 tcp 1040 ------- 0 4.3 9.0 401 7176
r 3.157872 0 9 tcp 1040 ------- 0 4.3 9.0 402 7336
r 3.158704 0 9 tcp 1040 ------- 0 4.3 9.0 403 7338
r 3.159536 0 9 tcp 1040 ------- 0 4.3 9.0 404 7340
r 3.160368 0 9 tcp 1040 ------- 0 4.3 9.0 405 7342
r 3.1612 0 9 tcp 1040 ------- 0 4.3 9.0 406 7344
r 3.162032 0 9 tcp 1040 ------- 0 4.3 9.0 407 7346
r 3.162864 0 9 tcp 1040 ------- 0 4.3 9.0 408 7348
r 3.163696 0 9 tcp 1040 ------- 0 4.3 9.0 409 7350
r 3.164528 0 9 tcp 1040 ------- 0 4.3 9.0 410 7352
r 3.16536 0 9 tcp 1040 ------- 0 4.3 9.0 411 7353
r 3.171063 0 9 tcp 1040 ------- 0 4.3 9.0 412 7370
r 3.188535 0 9 tcp 1040 ------- 0 4.3 9.0 413 7420
r 3.189367 0 9 tcp 1040 ------- 0 4.3 9.0 414 7421
r 3.190199 0 9 tcp 1040 ------- 0 4.3 9.0 415 7422
r 3.191031 0 9 tcp 1040 ------- 0 4.3 9.0 416 7424
r 3.197849 0 9 tcp 1040 ------- 0 4.3 9.0 417 7441
r 3.198681 0 9 tcp 1040 ------- 0 4.3 9.0 418 7442
r 3.199513 0 9 tcp 1040 ------- 0 4.3 9.0 419 7443
r 3.200345 0 9 tcp 1040 ------- 0 4.3 9.0 420 7444
r 3.201177 0 9 tcp 1040 ------- 0 4.3 9.0 421 7445
r 3.202009 0 9 tcp 1040 ------- 0 4.3 9.0 422 7446
r 3.202841 0 9 tcp 1040 ------- 0 4.3 9.0 423 7447
r 3.203673 0 9 tcp 1040 ------- 0 4.3 9.0 424 7448
r 3.231129 0 9 tcp 1040 ------- 0 4.3 9.0 425 7526
r 3.231961 0 9 tcp 1040 ------- 0 4.3 9.0 426 7527
r 3.232793 0 9 tcp 1040 ------- 0 4.3 9.0 427 7528
r 3.233625 0 9 tcp 1040 ------- 0 4.3 9.0 428 7529
r 3.234457 0 9 tcp 1040 ------- 0 4.3 9.0 429 7530
r 3.235289 0 9 tcp 1040 ------- 0 4.3 9.0 430 7531
r 3.236121 0 9 tcp 1040 ------- 0 4.3 9.0 431 7532
r 3.236953 0 9 tcp 1040 ------- 0 4.3 9.0 432 7533
r 3.237785 0 9 tcp 1040 ------- 0 4.3 9.0 433 7535
r 3.238617 0 9 tcp 1040 ------- 0 4.3 9.0 434 7537
r 3.239449 0 9 tcp 1040 ------- 0 4.3 9.0 435 7539
r 3.240281 0 9 tcp 1040 ------- 0 4.3 9.0 436 7561
r 3.241113 0 9 tcp 1040 ------- 0 4.3 9.0 437 7562
r 3.271897 0 9 tcp 1040 ------- 0 4.3 9.0 438 7652
r 3.272729 0 9 tcp 1040 ------- 0 4.3 9.0 439 7654
r 3.273561 0 9 tcp 1040 ------- 0 4.3 9.0 440 7656
r 3.274393 0 9 tcp 1040 ------- 0 4.3 9.0 441 7658
r 3.275225 0 9 tcp 1040 ------- 0 4.3 9.0 442 7660
r 3.276057 0 9 tcp 1040 ------- 0 4.3 9.0 443 7662
r 3.276889 0 9 tcp 1040 ------- 0 4.3 9.0 444 7664
r 3.277721 0 9 tcp 1040 ------- 0 4.3 9.0 445 7666
r 3.278553 0 9 tcp 1040 ------- 0 4.3 9.0 446 7668
r 3.279385 0 9 tcp 1040 ------- 0 4.3 9.0 447 7670
r 3.280217 0 9 tcp 1040 ------- 0 4.3 9.0 448 7672
r 3.281049 0 9 tcp 1040 ------- 0 4.3 9.0 449 7674
r 3.281881 0 9 tcp 1040 ------- 0 4.3 9.0 450 7691
r 3.319321 0 9 tcp 1040 ------- 0 4.3 9.0 451 7789
r 3.320153 0 9 tcp 1040 ------- 0 4.3 9.0 452 7790
r 3.320985 0 9 tcp 1040 ------- 0 4.3 9.0 453 7791
r 3.321817 0 9 tcp 1040 ------- 0 4.3 9.0 454 7792
r 3.322649 0 9 tcp 1040 ------- 0 4.3 9.0 455 7793
r 3.323481 0 9 tcp 1040 ------- 0 4.3 9.0 456 7794
r 3.324313 0 9 tcp 1040 ------- 0 4.3 9.0 457 7795
r 3.325145 0 9 tcp 1040 ------- 0 4.3 9.0 458 7796
r 3.325977 0 9 tcp 1040 ------- 0 4.3 9.0 459 7797
r 3.326809 0 9 tcp 1040 ------- 0 4.3 9.0 460 7798
r 3.327641 0 9 tcp 1040 ------- 0 4.3 9.0 461 7799
r 3.328473 0 9 tcp 1040 ------- 0 4.3 9.0 462 7800
r 3.329305 0 9 tcp 1040 ------- 0 4.3 9.0 463 7801
r 3.330137 0 9 tcp 1040 ------- 0 4.3 9.0 464 7803
r 3.375065 0 9 tcp 1040 ------- 0 4.3 9.0 465 7942
r 3.375897 0 9 tcp 1040 ------- 0 4.3 9.0 466 7944
r 3.376729 0 9 tcp 1040 ------- 0 4.3 9.0 467 7945
r 3.377561 0 9 tcp 1040 ------- 0 4.3 9.0 468 7947
r 3.378393 0 9 tcp 1040 ------- 0 4.3 9.0 469 7964
r 3.379225 0 9 tcp 1040 ------- 0 4.3 9.0 470 7965
r 3.380057 0 9 tcp 1040 ------- 0 4.3 9.0 471 7966
r 3.380889 0 9 tcp 1040 ------- 0 4.3 9.0 472 7967
r 3.381721 0 9 tcp 1040 ------- 0 4.3 9.0 473 7968
r 3.382553 0 9 tcp 1040 ------- 0 4.3 9.0 474 7969
r 3.383385 0 9 tcp 1040 ------- 0 4.3 9.0 475 7970
r 3.384217 0 9 tcp 1040 ------- 0 4.3 9.0 476 7971
r 3.385049 0 9 tcp 1040 ------- 0 4.3 9.0 477 7972
r 3.385881 0 9 tcp 1040 ------- 0 4.3 9.0 478 7973
r 3.386713 0 9 tcp 1040 ------- 0 4.3 9.0 479 7974
r 3.439129 0 9 tcp 1040 ------- 0 4.3 9.0 480 8141
r 3.439961 0 9 tcp 1040 ------- 0 4.3 9.0 481 8142
r 3.440793 0 9 tcp 1040 ------- 0 4.3 9.0 482 8143
r 3.441625 0 9 tcp 1040 ------- 0 4.3 9.0 483 8144
r 3.442457 0 9 tcp 1040 ------- 0 4.3 9.0 484 8145
r 3.443289 0 9 tcp 1040 ------- 0 4.3 9.0 485 8146
r 3.444121 0 9 tcp 1040 ------- 0 4.3 9.0 486 8147
r 3.444953 0 9 tcp 1040 ------- 0 4.3 9.0 487 8149
r 3.445785 0 9 tcp 1040 ------- 0 4.3 9.0 488 8150
r 3.446617 0 9 tcp 1040 ------- 0 4.3 9.0 489 8151
r 3.447449 0 9 tcp 1040 ------- 0 4.3 9.0 490 8152
r 3.448281 0 9 tcp 1040 ------- 0 4.3 9.0 491 8153
r 3.449113 0 9 tcp 1040 ------- 0 4.3 9.0 492 8154
r 3.449945 0 9 tcp 1040 ------- 0 4.3 9.0 493 8155
r 3.450777 0 9 tcp 1040 ------- 0 4.3 9.0 494 8156
r 3.451609 0 9 tcp 1040 ------- 0 4.3 9.0 495 8157
r 3.505689 0 9 tcp 1040 ------- 0 4.3 9.0 496 8333
r 3.506521 0 9 tcp 1040 ------- 0 4.3 9.0 497 8334
r 3.507353 0 9 tcp 1040 ------- 0 4.3 9.0 498 8335
r 3.508185 0 9 tcp 1040 ------- 0 4.3 9.0 499 8336
r 3.509017 0 9 tcp 1040 ------- 0 4.3 9.0 500 8338
r 3.509849 0 9 tcp 1040 ------- 0 4.3 9.0 501 8339
r 3.510681 0 9 tcp 1040 ------- 0 4.3 9.0 503 8343
r 3.511513 0 9 tcp 1040 ------- 0 4.3 9.0 506 8369
r 3.512345 0 9 tcp 1040 ------- 0 4.3 9.0 507 8371
r 3.513177 0 9 tcp 1040 ------- 0 4.3 9.0 508 8373
r 3.514009 0 9 tcp 1040 ------- 0 4.3 9.0 509 8375
r 3.514841 0 9 tcp 1040 ------- 0 4.3 9.0 510 8377
r 3.515673 0 9 tcp 1040 ------- 0 4.3 9.0 511 8379
r 3.516505 0 9 tcp 1040 ------- 0 4.3 9.0 512 8381
r 3.570585 0 9 tcp 1040 ------- 0 4.3 9.0 513 8556
r 3.571417 0 9 tcp 1040 ------- 0 4.3 9.0 514 8558
r 3.572249 0 9 tcp 1040 ------- 0 4.3 9.0 515 8560
r 3.573081 0 9 tcp 1040 ------- 0 4.3 9.0 516 8562
r 3.573913 0 9 tcp 1040 ------- 0 4.3 9.0 517 8579
r 3.574745 0 9 tcp 1040 ------- 0 4.3 9.0 518 8580
r 3.575577 0 9 tcp 1040 ------- 0 4.3 9.0 519 8581
r 3.576409 0 9 tcp 1040 ------- 0 4.3 9.0 520 8582
r 3.577241 0 9 tcp 1040 ---A--- 0 4.3 9.0 502 8583
r 3.615513 0 9 tcp 1040 ------- 0 4.3 9.0 504 8736
r 3.616345 0 9 tcp 1040 ------- 0 4.3 9.0 505 8737
r 3.648793 0 9 tcp 1040 ------- 0 4.3 9.0 506 8862
r 3.649625 0 9 tcp 1040 ------- 0 4.3 9.0 507 8863
r 3.653206 0 9 tcp 1040 ------- 0 4.3 9.0 521 8880
r 3.654038 0 9 tcp 1040 ------- 0 4.3 9.0 522 8881
r 3.65487 0 9 tcp 1040 ------- 0 4.3 9.0 523 8882
r 3.655702 0 9 tcp 1040 ------- 0 4.3 9.0 524 8883
r 3.698966 0 9 tcp 1040 ------- 0 4.3 9.0 525 8984
r 3.699798 0 9 tcp 1040 ------- 0 4.3 9.0 526 8985
r 3.70063 0 9 tcp 1040 ------- 0 4.3 9.0 527 8986
r 3.701462 0 9 tcp 1040 ------- 0 4.3 9.0 528 8987
r 3.702294 0 9 tcp 1040 ------- 0 4.3 9.0 529 8988
r 3.703126 0 9 tcp 1040 ------- 0 4.3 9.0 530 8989
r 3.703958 0 9 tcp 1040 ------- 0 4.3 9.0 531 8990
r 3.70479 0 9 tcp 1040 ------- 0 4.3 9.0 532 8991
r 3.75055 0 9 tcp 1040 ------- 0 4.3 9.0 533 9150
r 3.751382 0 9 tcp 1040 ------- 0 4.3 9.0 534 9151
r 3.752214 0 9 tcp 1040 ------- 0 4.3 9.0 535 9153
r 3.753046 0 9 tcp 1040 ------- 0 4.3 9.0 536 9154
r 3.753878 0 9 tcp 1040 ------- 0 4.3 9.0 537 9155
r 3.75471 0 9 tcp 1040 ------- 0 4.3 9.0 538 9156
r 3.755542 0 9 tcp 1040 ------- 0 4.3 9.0 539 9157
r 3.756374 0 9 tcp 1040 ------- 0 4.3 9.0 540 9158
r 3.807958 0 9 tcp 1040 ------- 0 4.3 9.0 541 9324
r 3.80879 0 9 tcp 1040 ------- 0 4.3 9.0 542 9325
r 3.809622 0 9 tcp 1040 ------- 0 4.3 9.0 543 9326
r 3.810454 0 9 tcp 1040 ------- 0 4.3 9.0 544 9327
r 3.811286 0 9 tcp 1040 ------- 0 4.3 9.0 545 9328
r 3.812118 0 9 tcp 1040 ------- 0 4.3 9.0 546 9329
r 3.81295 0 9 tcp 1040 ------- 0 4.3 9.0 547 9330
r 3.813782 0 9 tcp 1040 ------- 0 4.3 9.0 548 9331
r 3.814614 0 9 tcp 1040 ------- 0 4.3 9.0 549 9332
r 3.872854 0 9 tcp 1040 ------- 0 4.3 9.0 550 9506
r 3.873686 0 9 tcp 1040 ------- 0 4.3 9.0 551 9507
r 3.874518 0 9 tcp 1040 ------- 0 4.3 9.0 552 9508
r 3.87535 0 9 tcp 1040 ------- 0 4.3 9.0 553 9509
r 3.876182 0 9 tcp 1040 ------- 0 4.3 9.0 554 9510
r 3.877014 0 9 tcp 1040 ------- 0 4.3 9.0 555 9511
r 3.877846 0 9 tcp 1040 ------- 0 4.3 9.0 556 9512
r 3.878678 0 9 tcp 1040 ------- 0 4.3 9.0 557 9513
r 3.87951 0 9 tcp 1040 ------- 0 4.3 9.0 558 9514
r 3.880342 0 9 tcp 1040 ------- 0 4.3 9.0 559 9515
r 3.938582 0 9 tcp 1040 ------- 0 4.3 9.0 560 9722
r 3.939414 0 9 tcp 1040 ------- 0 4.3 9.0 562 9726
r 3.940246 0 9 tcp 1040 ------- 0 4.3 9.0 563 9728
r 3.941078 0 9 tcp 1040 ------- 0 4.3 9.0 565 9731
r 3.94191 0 9 tcp 1040 ------- 0 4.3 9.0 566 9733
r 3.942742 0 9 tcp 1040 ------- 0 4.3 9.0 567 9735
r 3.943574 0 9 tcp 1040 ------- 0 4.3 9.0 568 9737
r 3.944406 0 9 tcp 1040 ------- 0 4.3 9.0 569 9739
r 3.945238 0 9 tcp 1040 ------- 0 4.3 9.0 570 9741
r 3.993494 0 9 tcp 1040 ------- 0 4.3 9.0 571 9923
r 3.994326 0 9 tcp 1040 ------- 0 4.3 9.0 572 9924
r 3.995158 0 9 tcp 1040 ------- 0 4.3 9.0 573 9925
r 3.99599 0 9 tcp 1040 ---A--- 0 4.3 9.0 561 9926
r 4.030702 0 9 tcp 1040 ------- 0 4.3 9.0 564 10070
r 4.031534 0 9 tcp 1040 ------- 0 4.3 9.0 565 10071
r 4.073134 0 9 tcp 1040 ------- 0 4.3 9.0 574 10170
r 4.073966 0 9 tcp 1040 ------- 0 4.3 9.0 575 10171
r 4.074798 0 9 tcp 1040 ------- 0 4.3 9.0 576 10172
r 4.07563 0 9 tcp 1040 ------- 0 4.3 9.0 577 10174
r 4.128878 0 9 tcp 1040 ------- 0 4.3 9.0 578 10341