r 0.111142 0 8 tcp 40 ------- 0 4.2 8.0 0 2
r 0.138535 0 8 tcp 1040 ------- 0 4.2 8.0 1 14
r 0.139367 0 8 tcp 1040 ------- 0 4.2 8.0 2 15
r 0.165992 0 8 tcp 1040 ------- 0 4.2 8.0 3 38
r 0.166824 0 8 tcp 1040 ------- 0 4.2 8.0 4 39
r 0.167656 0 8 tcp 1040 ------- 0 4.2 8.0 5 40
r 0.168488 0 8 tcp 1040 ------- 0 4.2 8.0 6 41
r 0.196777 0 8 tcp 1040 ------- 0 4.2 8.0 7 86
r 0.197609 0 8 tcp 1040 ------- 0 4.2 8.0 8 87
r 0.198441 0 8 tcp 1040 ------- 0 4.2 8.0 9 88
r 0.199273 0 8 tcp 1040 ------- 0 4.2 8.0 10 89
r 0.200105 0 8 tcp 1040 ------- 0 4.2 8.0 11 90
r 0.200937 0 8 tcp 1040 ------- 0 4.2 8.0 12 91
r 0.201769 0 8 tcp 1040 ------- 0 4.2 8.0 13 92
r 0.202601 0 8 tcp 1040 ------- 0 4.2 8.0 14 93
r 0.243369 0 8 tcp 1040 ------- 0 4.2 8.0 15 172
r 0.244201 0 8 tcp 1040 ------- 0 4.2 8.0 16 173
r 0.245033 0 8 tcp 1040 ------- 0 4.2 8.0 17 175
r 0.245865 0 8 tcp 1040 ------- 0 4.2 8.0 18 176
r 0.246697 0 8 tcp 1040 ------- 0 4.2 8.0 19 178
r 0.247529 0 8 tcp 1040 ------- 0 4.2 8.0 20 179
r 0.248361 0 8 tcp 1040 ------- 0 4.2 8.0 21 181
r 0.249193 0 8 tcp 1040 ------- 0 4.2 8.0 22 182
r 0.250025 0 8 tcp 1040 ------- 0 4.2 8.0 23 184
r 0.250857 0 8 tcp 1040 ------- 0 4.2 8.0 24 185
r 0.251689 0 8 tcp 1040 ------- 0 4.2 8.0 25 187
r 0.252521 0 8 tcp 1040 ------- 0 4.2 8.0 26 188
r 0.253353 0 8 tcp 1040 ------- 0 4.2 8.0 27 190
r 0.254185 0 8 tcp 1040 ------- 0 4.2 8.0 28 191
r 0.255017 0 8 tcp 1040 ------- 0 4.2 8.0 29 193
r 0.255849 0 8 tcp 1040 ------- 0 4.2 8.0 30 194
r 0.308265 0 8 tcp 1040 ------- 0 4.2 8.0 31 316
r 0.309097 0 8 tcp 1040 ------- 0 4.2 8.0 33 319
r 0.309929 0 8 tcp 1040 ------- 0 4.2 8.0 35 322
r 0.310761 0 8 tcp 1040 ------- 0 4.2 8.0 37 325
r 0.311593 0 8 tcp 1040 ------- 0 4.2 8.0 39 328
r 0.312425 0 8 tcp 1040 ------- 0 4.2 8.0 40 330
r 0.313257 0 8 tcp 1040 ------- 0 4.2 8.0 41 332
r 0.314089 0 8 tcp 1040 ------- 0 4.2 8.0 42 334
r 0.314921 0 8 tcp 1040 ------- 0 4.2 8.0 43 336
r 0.315753 0 8 tcp 1040 ------- 0 4.2 8.0 44 338
r 0.316585 0 8 tcp 1040 ------- 0 4.2 8.0 45 340
r 0.317417 0 8 tcp 1040 ------- 0 4.2 8.0 46 342
r 0.318249 0 8 tcp 1040 ------- 0 4.2 8.0 47 344
r 0.319081 0 8 tcp 1040 ------- 0 4.2 8.0 48 346
r 0.319913 0 8 tcp 1040 ------- 0 4.2 8.0 49 348
r 0.320745 0 8 tcp 1040 ------- 0 4.2 8.0 50 350
r 0.349033 0 8 tcp 1040 ------- 0 4.2 8.0 51 455
r 0.349865 0 8 tcp 1040 ---A--- 0 4.2 8.0 32 459
r 0.373994 0 8 tcp 1040 ------- 0 4.2 8.0 34 504
r 0.374826 0 8 tcp 1040 ------- 0 4.2 8.0 35 505
r 0.40145 0 8 tcp 1040 ------- 0 4.2 8.0 36 528
r 0.402282 0 8 tcp 1040 ------- 0 4.2 8.0 37 529
r 0.403114 0 8 tcp 1040 ------- 0 4.2 8.0 38 530
r 0.403946 0 8 tcp 1040 ------- 0 4.2 8.0 39 531
r 0.433899 0 8 tcp 1040 ------- 0 4.2 8.0 40 578
r 0.434731 0 8 tcp 1040 ------- 0 4.2 8.0 41 579
r 0.435563 0 8 tcp 1040 ------- 0 4.2 8.0 42 580
r 0.436395 0 8 tcp 1040 ------- 0 4.2 8.0 52 581
r 0.437227 0 8 tcp 1040 ------- 0 4.2 8.0 53 582
r 0.438059 0 8 tcp 1040 ------- 0 4.2 8.0 54 583
r 0.438891 0 8 tcp 1040 ------- 0 4.2 8.0 55 584
r 0.439723 0 8 tcp 1040 ------- 0 4.2 8.0 56 585
r 0.440555 0 8 tcp 1040 ------- 0 4.2 8.0 57 586
r 0.470507 0 8 tcp 1040 ------- 0 4.2 8.0 58 654
r 0.471339 0 8 tcp 1040 ------- 0 4.2 8.0 59 659
r 0.472171 0 8 tcp 1040 ------- 0 4.2 8.0 60 660
r 0.473003 0 8 tcp 1040 ------- 0 4.2 8.0 61 662
r 0.473835 0 8 tcp 1040 ------- 0 4.2 8.0 62 663
r 0.474667 0 8 tcp 1040 ------- 0 4.2 8.0 63 665
r 0.475499 0 8 tcp 1040 ------- 0 4.2 8.0 64 666
r 0.476331 0 8 tcp 1040 ------- 0 4.2 8.0 65 668
r 0.477163 0 8 tcp 1040 ------- 0 4.2 8.0 66 669
r 0.477995 0 8 tcp 1040 ------- 0 4.2 8.0 67 671
r 0.515435 0 8 tcp 1040 ------- 0 4.2 8.0 68 752
r 0.516267 0 8 tcp 1040 ------- 0 4.2 8.0 69 754
r 0.517099 0 8 tcp 1040 ------- 0 4.2 8.0 70 756
r 0.517931 0 8 tcp 1040 ------- 0 4.2 8.0 71 758
r 0.518763 0 8 tcp 1040 ------- 0 4.2 8.0 72 760
r 0.519595 0 8 tcp 1040 ------- 0 4.2 8.0 73 762
r 0.520427 0 8 tcp 1040 ------- 0 4.2 8.0 74 764
r 0.521259 0 8 tcp 1040 ------- 0 4.2 8.0 75 766
r 0.522091 0 8 tcp 1040 ------- 0 4.2 8.0 76 768
r 0.522923 0 8 tcp 1040 ------- 0 4.2 8.0 77 770
r 0.523755 0 8 tcp 1040 ------- 0 4.2 8.0 78 771
r 0.562027 0 8 tcp 1040 ------- 0 4.2 8.0 79 862
r 0.562859 0 8 tcp 1040 ------- 0 4.2 8.0 80 864
r 0.563691 0 8 tcp 1040 ------- 0 4.2 8.0 81 866
r 0.564523 0 8 tcp 1040 ------- 0 4.2 8.0 82 868
r 0.565355 0 8 tcp 1040 ------- 0 4.2 8.0 83 870
r 0.566187 0 8 tcp 1040 ------- 0 4.2 8.0 84 872
r 0.567019 0 8 tcp 1040 ------- 0 4.2 8.0 85 874
r 0.567851 0 8 tcp 1040 ------- 0 4.2 8.0 86 876
r 0.568683 0 8 tcp 1040 ------- 0 4.2 8.0 87 878
r 0.569515 0 8 tcp 1040 ------- 0 4.2 8.0 88 880
r 0.570347 0 8 tcp 1040 ------- 0 4.2 8.0 89 882
r 0.571179 0 8 tcp 1040 ------- 0 4.2 8.0 90 883
r 0.611115 0 8 tcp 1040 ------- 0 4.2 8.0 91 977
r 0.611947 0 8 tcp 1040 ------- 0 4.2 8.0 92 979
r 0.612779 0 8 tcp 1040 ------- 0 4.2 8.0 93 981
r 0.613611 0 8 tcp 1040 ------- 0 4.2 8.0 94 983
r 0.614443 0 8 tcp 1040 ------- 0 4.2 8.0 95 985
r 0.615275 0 8 tcp 1040 ------- 0 4.2 8.0 96 987
r 0.616107 0 8 tcp 1040 ------- 0 4.2 8.0 97 989
r 0.616939 0 8 tcp 1040 ------- 0 4.2 8.0 98 991
r 0.617771 0 8 tcp 1040 ------- 0 4.2 8.0 99 993
r 0.618603 0 8 tcp 1040 ------- 0 4.2 8.0 100 995
r 0.619435 0 8 tcp 1040 ------- 0 4.2 8.0 101 997
r 0.620267 0 8 tcp 1040 ------- 0 4.2 8.0 102 999
r 0.662699 0 8 tcp 1040 ------- 0 4.2 8.0 103 1098
r 0.663531 0 8 tcp 1040 ------- 0 4.2 8.0 104 1099
r 0.664363 0 8 tcp 1040 ------- 0 4.2 8.0 105 1101
r 0.665195 0 8 tcp 1040 ------- 0 4.2 8.0 106 1103
r 0.666027 0 8 tcp 1040 ------- 0 4.2 8.0 107 1105
r 0.666859 0 8 tcp 1040 ------- 0 4.2 8.0 108 1107
r 0.667691 0 8 tcp 1040 ------- 0 4.2 8.0 109 1109
r 0.668523 0 8 tcp 1040 ------- 0 4.2 8.0 110 1111
r 0.669355 0 8 tcp 1040 ------- 0 4.2 8.0 111 1113
r 0.670187 0 8 tcp 1040 ------- 0 4.2 8.0 112 1115
r 0.671019 0 8 tcp 1040 ------- 0 4.2 8.0 113 1117
r 0.671851 0 8 tcp 1040 ------- 0 4.2 8.0 114 1119
r 0.672683 0 8 tcp 1040 ------- 0 4.2 8.0 115 1121
r 0.718443 0 8 tcp 1040 ------- 0 4.2 8.0 116 1227
r 0.719275 0 8 tcp 1040 ------- 0 4.2 8.0 117 1229
r 0.720107 0 8 tcp 1040 ------- 0 4.2 8.0 118 1230
r 0.720939 0 8 tcp 1040 ------- 0 4.2 8.0 119 1232
r 0.721771 0 8 tcp 1040 ------- 0 4.2 8.0 120 1234
r 0.722603 0 8 tcp 1040 ------- 0 4.2 8.0 121 1236
r 0.723435 0 8 tcp 1040 ------- 0 4.2 8.0 122 1238
r 0.724267 0 8 tcp 1040 ------- 0 4.2 8.0 123 1240
r 0.725099 0 8 tcp 1040 ------- 0 4.2 8.0 124 1242
r 0.725931 0 8 tcp 1040 ------- 0 4.2 8.0 125 1244
r 0.726763 0 8 tcp 1040 ------- 0 4.2 8.0 126 1246
r 0.727595 0 8 tcp 1040 ------- 0 4.2 8.0 127 1248
r 0.728427 0 8 tcp 1040 ------- 0 4.2 8.0 128 1250
r 0.729259 0 8 tcp 1040 ------- 0 4.2 8.0 129 1252
r 0.778347 0 8 tcp 1040 ------- 0 4.2 8.0 130 1366
r 0.779179 0 8 tcp 1040 ------- 0 4.2 8.0 131 1368
r 0.780011 0 8 tcp 1040 ------- 0 4.2 8.0 132 1370
r 0.780843 0 8 tcp 1040 ------- 0 4.2 8.0 133 1372
r 0.781675 0 8 tcp 1040 ------- 0 4.2 8.0 134 1373
r 0.782507 0 8 tcp 1040 ------- 0 4.2 8.0 135 1375
r 0.783339 0 8 tcp 1040 ------- 0 4.2 8.0 136 1377
r 0.784171 0 8 tcp 1040 ------- 0 4.2 8.0 137 1379
r 0.785003 0 8 tcp 1040 ------- 0 4.2 8.0 138 1381
r 0.785835 0 8 tcp 1040 ------- 0 4.2 8.0 139 1383
r 0.786667 0 8 tcp 1040 ------- 0 4.2 8.0 140 1385
r 0.787499 0 8 tcp 1040 ------- 0 4.2 8.0 141 1387
r 0.788331 0 8 tcp 1040 ------- 0 4.2 8.0 142 1389
r 0.789163 0 8 tcp 1040 ------- 0 4.2 8.0 143 1391
r 0.789995 0 8 tcp 1040 ------- 0 4.2 8.0 144 1393
r 0.842411 0 8 tcp 1040 ------- 0 4.2 8.0 145 1515
r 0.843243 0 8 tcp 1040 ------- 0 4.2 8.0 146 1517
r 0.844075 0 8 tcp 1040 ------- 0 4.2 8.0 147 1519
r 0.844907 0 8 tcp 1040 ------- 0 4.2 8.0 148 1521
r 0.845739 0 8 tcp 1040 ------- 0 4.2 8.0 149 1523
r 0.846571 0 8 tcp 1040 ------- 0 4.2 8.0 150 1524
r 0.847403 0 8 tcp 1040 ------- 0 4.2 8.0 151 1526
r 0.848235 0 8 tcp 1040 ------- 0 4.2 8.0 152 1528
r 0.849067 0 8 tcp 1040 ------- 0 4.2 8.0 153 1530
r 0.849899 0 8 tcp 1040 ------- 0 4.2 8.0 154 1532
r 0.850731 0 8 tcp 1040 ------- 0 4.2 8.0 155 1534
r 0.851563 0 8 tcp 1040 ------- 0 4.2 8.0 156 1536
r 0.852395 0 8 tcp 1040 ------- 0 4.2 8.0 157 1538
r 0.853227 0 8 tcp 1040 ------- 0 4.2 8.0 158 1540
r 0.854059 0 8 tcp 1040 ------- 0 4.2 8.0 159 1542
r 0.854891 0 8 tcp 1040 ------- 0 4.2 8.0 160 1544
r 0.907307 0 8 tcp 1040 ------- 0 4.2 8.0 161 1674
r 0.908139 0 8 tcp 1040 ------- 0 4.2 8.0 162 1676
r 0.908971 0 8 tcp 1040 ------- 0 4.2 8.0 163 1678
r 0.909803 0 8 tcp 1040 ------- 0 4.2 8.0 164 1680
r 0.910635 0 8 tcp 1040 ------- 0 4.2 8.0 165 1682
r 0.911467 0 8 tcp 1040 ------- 0 4.2 8.0 166 1684
r 0.912299 0 8 tcp 1040 ------- 0 4.2 8.0 167 1686
r 0.913131 0 8 tcp 1040 ------- 0 4.2 8.0 169 1689
r 0.913963 0 8 tcp 1040 ------- 0 4.2 8.0 170 1691
r 0.914795 0 8 tcp 1040 ------- 0 4.2 8.0 171 1693
r 0.915627 0 8 tcp 1040 ------- 0 4.2 8.0 172 1695
r 0.916459 0 8 tcp 1040 ------- 0 4.2 8.0 173 1697
r 0.917291 0 8 tcp 1040 ------- 0 4.2 8.0 174 1699
r 0.918123 0 8 tcp 1040 ------- 0 4.2 8.0 175 1701
r 0.918955 0 8 tcp 1040 ------- 0 4.2 8.0 176 1703
r 0.919787 0 8 tcp 1040 ------- 0 4.2 8.0 177 1705
r 0.956395 0 8 tcp 1040 ------- 0 4.2 8.0 178 1812
r 0.957227 0 8 tcp 1040 ------- 0 4.2 8.0 179 1814
r 0.958059 0 8 tcp 1040 ------- 0 4.2 8.0 180 1816
r 0.958891 0 8 tcp 1040 ------- 0 4.2 8.0 181 1818
r 0.959723 0 8 tcp 1040 ------- 0 4.2 8.0 182 1820
r 0.960555 0 8 tcp 1040 ------- 0 4.2 8.0 183 1822
r 0.961387 0 8 tcp 1040 ------- 0 4.2 8.0 184 1824
r 0.962219 0 8 tcp 1040 ------- 0 4.2 8.0 185 1826
r 0.963051 0 8 tcp 1040 ------- 0 4.2 8.0 186 1828
r 0.963883 0 8 tcp 1040 ---A--- 0 4.2 8.0 168 1830
r 0.988012 0 8 tcp 1040 ------- 0 4.2 8.0 187 1891
r 0.988844 0 8 tcp 1040 ------- 0 4.2 8.0 188 1892
r 1.012141 0 8 tcp 1040 ------- 0 4.2 8.0 189 1925
r 1.012973 0 8 tcp 1040 ------- 0 4.2 8.0 190 1926
r 1.013805 0 8 tcp 1040 ------- 0 4.2 8.0 191 1927
r 1.014637 0 8 tcp 1040 ------- 0 4.2 8.0 192 1928
r 1.042093 0 8 tcp 1040 ------- 0 4.2 8.0 193 1979
r 1.042925 0 8 tcp 1040 ------- 0 4.2 8.0 194 1980
r 1.043757 0 8 tcp 1040 ------- 0 4.2 8.0 195 1982
r 1.044589 0 8 tcp 1040 ------- 0 4.2 8.0 196 1983
r 1.045421 0 8 tcp 1040 ------- 0 4.2 8.0 197 1985
r 1.046253 0 8 tcp 1040 ------- 0 4.2 8.0 198 1986
r 1.047085 0 8 tcp 1040 ------- 0 4.2 8.0 199 1988
r 1.047917 0 8 tcp 1040 ------- 0 4.2 8.0 200 1989
r 1.075373 0 8 tcp 1040 ------- 0 4.2 8.0 201 2055
r 1.076205 0 8 tcp 1040 ------- 0 4.2 8.0 202 2057
r 1.077037 0 8 tcp 1040 ------- 0 4.2 8.0 203 2059
r 1.077869 0 8 tcp 1040 ------- 0 4.2 8.0 204 2061
r 1.078701 0 8 tcp 1040 ------- 0 4.2 8.0 205 2063
r 1.079533 0 8 tcp 1040 ------- 0 4.2 8.0 206 2065
r 1.080365 0 8 tcp 1040 ------- 0 4.2 8.0 207 2067
r 1.081197 0 8 tcp 1040 ------- 0 4.2 8.0 208 2069
r 1.111981 0 8 tcp 1040 ------- 0 4.2 8.0 209 2139
r 1.112813 0 8 tcp 1040 ------- 0 4.2 8.0 210 2140
r 1.113645 0 8 tcp 1040 ------- 0 4.2 8.0 211 2142
r 1.114477 0 8 tcp 1040 ------- 0 4.2 8.0 212 2144
r 1.115309 0 8 tcp 1040 ------- 0 4.2 8.0 213 2146
r 1.116141 0 8 tcp 1040 ------- 0 4.2 8.0 214 2148
r 1.116973 0 8 tcp 1040 ------- 0 4.2 8.0 215 2150
r 1.117805 0 8 tcp 1040 ------- 0 4.2 8.0 216 2152
r 1.118637 0 8 tcp 1040 ------- 0 4.2 8.0 217 2154
r 1.152749 0 8 tcp 1040 ------- 0 4.2 8.0 218 2232
r 1.153581 0 8 tcp 1040 ------- 0 4.2 8.0 219 2234
r 1.154413 0 8 tcp 1040 ------- 0 4.2 8.0 220 2235
r 1.155245 0 8 tcp 1040 ------- 0 4.2 8.0 221 2237
r 1.156077 0 8 tcp 1040 ------- 0 4.2 8.0 222 2239
r 1.156909 0 8 tcp 1040 ------- 0 4.2 8.0 223 2241
r 1.157741 0 8 tcp 1040 ------- 0 4.2 8.0 224 2243
r 1.158573 0 8 tcp 1040 ------- 0 4.2 8.0 225 2245
r 1.159405 0 8 tcp 1040 ------- 0 4.2 8.0 226 2247
r 1.160237 0 8 tcp 1040 ------- 0 4.2 8.0 227 2249
r 1.197677 0 8 tcp 1040 ------- 0 4.2 8.0 228 2335
r 1.198509 0 8 tcp 1040 ------- 0 4.2 8.0 229 2337
r 1.199341 0 8 tcp 1040 ------- 0 4.2 8.0 230 2339
r 1.200173 0 8 tcp 1040 ------- 0 4.2 8.0 231 2341
r 1.201005 0 8 tcp 1040 ------- 0 4.2 8.0 232 2342
r 1.201837 0 8 tcp 1040 ------- 0 4.2 8.0 233 2344
r 1.202669 0 8 tcp 1040 ------- 0 4.2 8.0 234 2346
r 1.203501 0 8 tcp 1040 ------- 0 4.2 8.0 235 2348
r 1.204333 0 8 tcp 1040 ------- 0 4.2 8.0 236 2350
r 1.205165 0 8 tcp 1040 ------- 0 4.2 8.0 237 2352
r 1.205997 0 8 tcp 1040 ------- 0 4.2 8.0 238 2354
r 1.246765 0 8 tcp 1040 ------- 0 4.2 8.0 239 2448
r 1.247597 0 8 tcp 1040 ------- 0 4.2 8.0 240 2450
r 1.248429 0 8 tcp 1040 ------- 0 4.2 8.0 241 2452
r 1.249261 0 8 tcp 1040 ------- 0 4.2 8.0 242 2454
r 1.250093 0 8 tcp 1040 ------- 0 4.2 8.0 243 2456
r 1.250925 0 8 tcp 1040 ------- 0 4.2 8.0 244 2457
r 1.251757 0 8 tcp 1040 ------- 0 4.2 8.0 245 2459
r 1.252589 0 8 tcp 1040 ------- 0 4.2 8.0 246 2461
r 1.253421 0 8 tcp 1040 ------- 0 4.2 8.0 247 2463
r 1.254253 0 8 tcp 1040 ------- 0 4.2 8.0 248 2465
r 1.255085 0 8 tcp 1040 ------- 0 4.2 8.0 249 2467
r 1.255917 0 8 tcp 1040 ------- 0 4.2 8.0 250 2469
r 1.300013 0 8 tcp 1040 ------- 0 4.2 8.0 251 2571
r 1.300845 0 8 tcp 1040 ------- 0 4.2 8.0 252 2573
r 1.301677 0 8 tcp 1040 ------- 0 4.2 8.0 253 2575
r 1.302509 0 8 tcp 1040 ------- 0 4.2 8.0 254 2577
r 1.303341 0 8 tcp 1040 ------- 0 4.2 8.0 255 2579
r 1.304173 0 8 tcp 1040 ------- 0 4.2 8.0 256 2581
r 1.305005 0 8 tcp 1040 ------- 0 4.2 8.0 257 2583
r 1.305837 0 8 tcp 1040 ------- 0 4.2 8.0 258 2584
r 1.306669 0 8 tcp 1040 ------- 0 4.2 8.0 259 2586
r 1.307501 0 8 tcp 1040 ------- 0 4.2 8.0 260 2588
r 1.308333 0 8 tcp 1040 ------- 0 4.2 8.0 261 2590
r 1.309165 0 8 tcp 1040 ------- 0 4.2 8.0 262 2592
r 1.309997 0 8 tcp 1040 ------- 0 4.2 8.0 263 2594
r 1.357421 0 8 tcp 1040 ------- 0 4.2 8.0 264 2704
r 1.358253 0 8 tcp 1040 ------- 0 4.2 8.0 265 2706
r 1.359085 0 8 tcp 1040 ------- 0 4.2 8.0 266 2708
r 1.359917 0 8 tcp 1040 ------- 0 4.2 8.0 267 2710
r 1.360749 0 8 tcp 1040 ------- 0 4.2 8.0 268 2712
r 1.361581 0 8 tcp 1040 ------- 0 4.2 8.0 269 2714
r 1.362413 0 8 tcp 1040 ------- 0 4.2 8.0 270 2716
r 1.363245 0 8 tcp 1040 ------- 0 4.2 8.0 271 2718
r 1.364077 0 8 tcp 1040 ------- 0 4.2 8.0 272 2719
r 1.364909 0 8 tcp 1040 ------- 0 4.2 8.0 273 2721
r 1.365741 0 8 tcp 1040 ------- 0 4.2 8.0 274 2723
r 1.366573 0 8 tcp 1040 ------- 0 4.2 8.0 275 2725
r 1.367405 0 8 tcp 1040 ------- 0 4.2 8.0 276 2727
r 1.368237 0 8 tcp 1040 ------- 0 4.2 8.0 277 2729
r 1.418989 0 8 tcp 1040 ------- 0 4.2 8.0 278 2847
r 1.419821 0 8 tcp 1040 ------- 0 4.2 8.0 279 2849
r 1.420653 0 8 tcp 1040 ------- 0 4.2 8.0 280 2851
r 1.421485 0 8 tcp 1040 ------- 0 4.2 8.0 281 2853
r 1.422317 0 8 tcp 1040 ------- 0 4.2 8.0 282 2855
r 1.423149 0 8 tcp 1040 ------- 0 4.2 8.0 283 2857
r 1.423981 0 8 tcp 1040 ------- 0 4.2 8.0 284 2859
r 1.424813 0 8 tcp 1040 ------- 0 4.2 8.0 285 2861
r 1.425645 0 8 tcp 1040 ------- 0 4.2 8.0 286 2863
r 1.426477 0 8 tcp 1040 ------- 0 4.2 8.0 287 2865
r 1.427309 0 8 tcp 1040 ------- 0 4.2 8.0 288 2866
r 1.428141 0 8 tcp 1040 ------- 0 4.2 8.0 289 2868
r 1.428973 0 8 tcp 1040 ------- 0 4.2 8.0 290 2870
r 1.429805 0 8 tcp 1040 ------- 0 4.2 8.0 291 2872
r 1.430637 0 8 tcp 1040 ------- 0 4.2 8.0 292 2874
r 1.483885 0 8 tcp 1040 ------- 0 4.2 8.0 293 3000
r 1.484717 0 8 tcp 1040 ------- 0 4.2 8.0 294 3002
r 1.485549 0 8 tcp 1040 ------- 0 4.2 8.0 295 3004
r 1.486381 0 8 tcp 1040 ------- 0 4.2 8.0 296 3006
r 1.487213 0 8 tcp 1040 ------- 0 4.2 8.0 297 3008
r 1.488045 0 8 tcp 1040 ------- 0 4.2 8.0 298 3010
r 1.488877 0 8 tcp 1040 ------- 0 4.2 8.0 299 3012
r 1.489709 0 8 tcp 1040 ------- 0 4.2 8.0 300 3014
r 1.490541 0 8 tcp 1040 ------- 0 4.2 8.0 301 3016
r 1.491373 0 8 tcp 1040 ------- 0 4.2 8.0 302 3018
r 1.492205 0 8 tcp 1040 ------- 0 4.2 8.0 303 3020
r 1.493037 0 8 tcp 1040 ------- 0 4.2 8.0 305 3023
r 1.493869 0 8 tcp 1040 ------- 0 4.2 8.0 306 3025
r 1.494701 0 8 tcp 1040 ------- 0 4.2 8.0 307 3027
r 1.495533 0 8 tcp 1040 ------- 0 4.2 8.0 308 3029
r 1.547949 0 8 tcp 1040 ------- 0 4.2 8.0 309 3159
r 1.548781 0 8 tcp 1040 ------- 0 4.2 8.0 310 3161
r 1.549613 0 8 tcp 1040 ------- 0 4.2 8.0 311 3163
r 1.550445 0 8 tcp 1040 ------- 0 4.2 8.0 312 3165
r 1.551277 0 8 tcp 1040 ------- 0 4.2 8.0 313 3167
r 1.552109 0 8 tcp 1040 ------- 0 4.2 8.0 314 3169
r 1.552941 0 8 tcp 1040 ------- 0 4.2 8.0 315 3171
r 1.553773 0 8 tcp 1040 ------- 0 4.2 8.0 316 3173
r 1.554605 0 8 tcp 1040 ------- 0 4.2 8.0 317 3175
r 1.555437 0 8 tcp 1040 ------- 0 4.2 8.0 318 3177
r 1.556269 0 8 tcp 1040 ------- 0 4.2 8.0 319 3179
r 1.557101 0 8 tcp 1040 ------- 0 4.2 8.0 320 3181
r 1.557933 0 8 tcp 1040 ------- 0 4.2 8.0 321 3183
r 1.558765 0 8 tcp 1040 ---A--- 0 4.2 8.0 304 3185
r 1.601197 0 8 tcp 1040 ------- 0 4.2 8.0 322 3313
r 1.602029 0 8 tcp 1040 ------- 0 4.2 8.0 323 3314
r 1.627822 0 8 tcp 1040 ------- 0 4.2 8.0 324 3368
r 1.628654 0 8 tcp 1040 ------- 0 4.2 8.0 325 3369
r 1.629486 0 8 tcp 1040 ------- 0 4.2 8.0 326 3370
r 1.630318 0 8 tcp 1040 ------- 0 4.2 8.0 327 3371
r 1.656942 0 8 tcp 1040 ------- 0 4.2 8.0 328 3410
r 1.657774 0 8 tcp 1040 ------- 0 4.2 8.0 329 3411
r 1.658606 0 8 tcp 1040 ------- 0 4.2 8.0 330 3412
r 1.659438 0 8 tcp 1040 ------- 0 4.2 8.0 331 3413
r 1.66027 0 8 tcp 1040 ------- 0 4.2 8.0 332 3414
r 1.661102 0 8 tcp 1040 ------- 0 4.2 8.0 333 3415
r 1.661934 0 8 tcp 1040 ------- 0 4.2 8.0 334 3416
r 1.662766 0 8 tcp 1040 ------- 0 4.2 8.0 335 3417
r 1.690222 0 8 tcp 1040 ------- 0 4.2 8.0 336 3476
r 1.691054 0 8 tcp 1040 ------- 0 4.2 8.0 337 3478
r 1.691886 0 8 tcp 1040 ------- 0 4.2 8.0 338 3480
r 1.692718 0 8 tcp 1040 ------- 0 4.2 8.0 339 3482
r 1.69355 0 8 tcp 1040 ------- 0 4.2 8.0 340 3484
r 1.694382 0 8 tcp 1040 ------- 0 4.2 8.0 341 3486
r 1.695214 0 8 tcp 1040 ------- 0 4.2 8.0 342 3488
r 1.696046 0 8 tcp 1040 ------- 0 4.2 8.0 343 3490
r 1.724334 0 8 tcp 1040 ------- 0 4.2 8.0 344 3557
r 1.725166 0 8 tcp 1040 ------- 0 4.2 8.0 345 3558
r 1.725998 0 8 tcp 1040 ------- 0 4.2 8.0 346 3560
r 1.72683 0 8 tcp 1040 ------- 0 4.2 8.0 347 3562
r 1.727662 0 8 tcp 1040 ------- 0 4.2 8.0 348 3564
r 1.728494 0 8 tcp 1040 ------- 0 4.2 8.0 349 3566
r 1.729326 0 8 tcp 1040 ------- 0 4.2 8.0 350 3568
r 1.730158 0 8 tcp 1040 ------- 0 4.2 8.0 351 3570
r 1.73099 0 8 tcp 1040 ------- 0 4.2 8.0 352 3572
r 1.762606 0 8 tcp 1040 ------- 0 4.2 8.0 353 3644
r 1.763438 0 8 tcp 1040 ------- 0 4.2 8.0 354 3646
r 1.76427 0 8 tcp 1040 ------- 0 4.2 8.0 355 3647
r 1.765102 0 8 tcp 1040 ------- 0 4.2 8.0 356 3649
r 1.765934 0 8 tcp 1040 ------- 0 4.2 8.0 357 3651
r 1.766766 0 8 tcp 1040 ------- 0 4.2 8.0 358 3653
r 1.767598 0 8 tcp 1040 ------- 0 4.2 8.0 359 3655
r 1.76843 0 8 tcp 1040 ------- 0 4.2 8.0 360 3657
r 1.769262 0 8 tcp 1040 ------- 0 4.2 8.0 361 3659
r 1.770094 0 8 tcp 1040 ------- 0 4.2 8.0 362 3661
r 1.805038 0 8 tcp 1040 ------- 0 4.2 8.0 363 3741
r 1.80587 0 8 tcp 1040 ------- 0 4.2 8.0 364 3743
r 1.806702 0 8 tcp 1040 ------- 0 4.2 8.0 365 3745
r 1.807534 0 8 tcp 1040 ------- 0 4.2 8.0 366 3747
r 1.808366 0 8 tcp 1040 ------- 0 4.2 8.0 367 3748
r 1.809198 0 8 tcp 1040 ------- 0 4.2 8.0 368 3750
r 1.81003 0 8 tcp 1040 ------- 0 4.2 8.0 369 3752
r 1.810862 0 8 tcp 1040 ------- 0 4.2 8.0 370 3754
r 1.811694 0 8 tcp 1040 ------- 0 4.2 8.0 371 3756
r 1.812526 0 8 tcp 1040 ------- 0 4.2 8.0 372 3758
r 1.813358 0 8 tcp 1040 ------- 0 4.2 8.0 373 3760
r 1.85163 0 8 tcp 1040 ------- 0 4.2 8.0 374 3848
r 1.852462 0 8 tcp 1040 ------- 0 4.2 8.0 375 3850
r 1.853294 0 8 tcp 1040 ------- 0 4.2 8.0 376 3852
r 1.854126 0 8 tcp 1040 ------- 0 4.2 8.0 377 3854
r 1.854958 0 8 tcp 1040 ------- 0 4.2 8.0 378 3856
r 1.85579 0 8 tcp 1040 ------- 0 4.2 8.0 379 3857
r 1.856622 0 8 tcp 1040 ------- 0 4.2 8.0 380 3859
r 1.857454 0 8 tcp 1040 ------- 0 4.2 8.0 381 3861
r 1.858286 0 8 tcp 1040 ------- 0 4.2 8.0 382 3863
r 1.859118 0 8 tcp 1040 ------- 0 4.2 8.0 383 3865
r 1.85995 0 8 tcp 1040 ------- 0 4.2 8.0 384 3867
r 1.860782 0 8 tcp 1040 ------- 0 4.2 8.0 385 3869
r 1.902382 0 8 tcp 1040 ------- 0 4.2 8.0 386 3965
r 1.903214 0 8 tcp 1040 ------- 0 4.2 8.0 387 3967
r 1.904046 0 8 tcp 1040 ------- 0 4.2 8.0 388 3969
r 1.904878 0 8 tcp 1040 ------- 0 4.2 8.0 389 3971
r 1.90571 0 8 tcp 1040 ------- 0 4.2 8.0 390 3973
r 1.906542 0 8 tcp 1040 ------- 0 4.2 8.0 391 3975
r 1.907374 0 8 tcp 1040 ------- 0 4.2 8.0 392 3977
r 1.908206 0 8 tcp 1040 ------- 0 4.2 8.0 393 3978
r 1.909038 0 8 tcp 1040 ------- 0 4.2 8.0 394 3980
r 1.90987 0 8 tcp 1040 ------- 0 4.2 8.0 395 3982
r 1.910702 0 8 tcp 1040 ------- 0 4.2 8.0 396 3984
r 1.911534 0 8 tcp 1040 ------- 0 4.2 8.0 397 3986
r 1.912366 0 8 tcp 1040 ------- 0 4.2 8.0 398 3988
r 1.957294 0 8 tcp 1040 ------- 0 4.2 8.0 399 4092
r 1.958126 0 8 tcp 1040 ------- 0 4.2 8.0 400 4094
r 1.958958 0 8 tcp 1040 ------- 0 4.2 8.0 401 4096
r 1.95979 0 8 tcp 1040 ------- 0 4.2 8.0 402 4098
r 1.960622 0 8 tcp 1040 ------- 0 4.2 8.0 403 4100
r 1.961454 0 8 tcp 1040 ------- 0 4.2 8.0 404 4102
r 1.962286 0 8 tcp 1040 ------- 0 4.2 8.0 405 4104
r 1.963118 0 8 tcp 1040 ------- 0 4.2 8.0 406 4106
r 1.96395 0 8 tcp 1040 ------- 0 4.2 8.0 407 4107
r 1.964782 0 8 tcp 1040 ------- 0 4.2 8.0 408 4109
r 1.965614 0 8 tcp 1040 ------- 0 4.2 8.0 409 4111
r 1.966446 0 8 tcp 1040 ------- 0 4.2 8.0 410 4113
r 1.967278 0 8 tcp 1040 ------- 0 4.2 8.0 411 4115
r 1.96811 0 8 tcp 1040 ------- 0 4.2 8.0 412 4117
r 2.016366 0 8 tcp 1040 ------- 0 4.2 8.0 413 4229
r 2.017198 0 8 tcp 1040 ------- 0 4.2 8.0 414 4231
r 2.01803 0 8 tcp 1040 ------- 0 4.2 8.0 415 4233
r 2.018862 0 8 tcp 1040 ------- 0 4.2 8.0 416 4235
r 2.019694 0 8 tcp 1040 ------- 0 4.2 8.0 417 4237
r 2.020526 0 8 tcp 1040 ------- 0 4.2 8.0 418 4239
r 2.021358 0 8 tcp 1040 ------- 0 4.2 8.0 419 4241
r 2.02219 0 8 tcp 1040 ------- 0 4.2 8.0 420 4243
r 2.023022 0 8 tcp 1040 ------- 0 4.2 8.0 421 4245
r 2.023854 0 8 tcp 1040 ------- 0 4.2 8.0 422 4247
r 2.024686 0 8 tcp 1040 ------- 0 4.2 8.0 423 4248
r 2.025518 0 8 tcp 1040 ------- 0 4.2 8.0 424 4250
r 2.02635 0 8 tcp 1040 ------- 0 4.2 8.0 425 4252
r 2.027182 0 8 tcp 1040 ------- 0 4.2 8.0 426 4254
r 2.028014 0 8 tcp 1040 ------- 0 4.2 8.0 427 4256
r 2.079598 0 8 tcp 1040 ------- 0 4.2 8.0 428 4376
r 2.08043 0 8 tcp 1040 ------- 0 4.2 8.0 429 4378
r 2.081262 0 8 tcp 1040 ------- 0 4.2 8.0 430 4380
r 2.082094 0 8 tcp 1040 ------- 0 4.2 8.0 431 4382
r 2.082926 0 8 tcp 1040 ------- 0 4.2 8.0 432 4384
r 2.083758 0 8 tcp 1040 ------- 0 4.2 8.0 433 4386
r 2.08459 0 8 tcp 1040 ------- 0 4.2 8.0 434 4388
r 2.085422 0 8 tcp 1040 ------- 0 4.2 8.0 435 4390
r 2.086254 0 8 tcp 1040 ------- 0 4.2 8.0 436 4392
r 2.087086 0 8 tcp 1040 ------- 0 4.2 8.0 437 4394
r 2.087918 0 8 tcp 1040 ------- 0 4.2 8.0 438 4396
r 2.08875 0 8 tcp 1040 ------- 0 4.2 8.0 439 4397
r 2.089582 0 8 tcp 1040 ------- 0 4.2 8.0 440 4399
r 2.090414 0 8 tcp 1040 ------- 0 4.2 8.0 441 4401
r 2.091246 0 8 tcp 1040 ------- 0 4.2 8.0 442 4403
r 2.092078 0 8 tcp 1040 ------- 0 4.2 8.0 443 4405
r 2.144494 0 8 tcp 1040 ------- 0 4.2 8.0 444 4533
r 2.145326 0 8 tcp 1040 ------- 0 4.2 8.0 445 4535
r 2.146158 0 8 tcp 1040 ------- 0 4.2 8.0 446 4537
r 2.14699 0 8 tcp 1040 ------- 0 4.2 8.0 447 4539
r 2.147822 0 8 tcp 1040 ------- 0 4.2 8.0 448 4541
r 2.148654 0 8 tcp 1040 ------- 0 4.2 8.0 449 4543
r 2.149486 0 8 tcp 1040 ------- 0 4.2 8.0 450 4545
r 2.150318 0 8 tcp 1040 ------- 0 4.2 8.0 451 4547
r 2.15115 0 8 tcp 1040 ------- 0 4.2 8.0 452 4549
r 2.151982 0 8 tcp 1040 ------- 0 4.2 8.0 453 4551
r 2.152814 0 8 tcp 1040 ------- 0 4.2 8.0 454 4553
r 2.153646 0 8 tcp 1040 ------- 0 4.2 8.0 455 4555
r 2.154478 0 8 tcp 1040 ------- 0 4.2 8.0 456 4557
r 2.15531 0 8 tcp 1040 ------- 0 4.2 8.0 458 4560
r 2.156142 0 8 tcp 1040 ------- 0 4.2 8.0 459 4562
r 2.156974 0 8 tcp 1040 ------- 0 4.2 8.0 460 4564
r 2.207726 0 8 tcp 1040 ------- 0 4.2 8.0 461 4689
r 2.208558 0 8 tcp 1040 ------- 0 4.2 8.0 462 4691
r 2.20939 0 8 tcp 1040 ------- 0 4.2 8.0 463 4693
r 2.210222 0 8 tcp 1040 ------- 0 4.2 8.0 464 4695
r 2.211054 0 8 tcp 1040 ------- 0 4.2 8.0 465 4697
r 2.211886 0 8 tcp 1040 ------- 0 4.2 8.0 466 4699
r 2.212718 0 8 tcp 1040 ------- 0 4.2 8.0 467 4701
r 2.21355 0 8 tcp 1040 ------- 0 4.2 8.0 468 4703
r 2.214382 0 8 tcp 1040 ------- 0 4.2 8.0 469 4705
r 2.215214 0 8 tcp 1040 ------- 0 4.2 8.0 470 4707
r 2.216046 0 8 tcp 1040 ------- 0 4.2 8.0 471 4709
r 2.216878 0 8 tcp 1040 ------- 0 4.2 8.0 472 4711
r 2.21771 0 8 tcp 1040 ------- 0 4.2 8.0 473 4713
r 2.218542 0 8 tcp 1040 ------- 0 4.2 8.0 474 4715
r 2.219374 0 8 tcp 1040 ------- 0 4.2 8.0 475 4717
r 2.220206 0 8 tcp 1040 ---A--- 0 4.2 8.0 457 4719
r 2.244335 0 8 tcp 1040 ------- 0 4.2 8.0 476 4818
r 2.245167 0 8 tcp 1040 ------- 0 4.2 8.0 477 4819
r 2.269295 0 8 tcp 1040 ------- 0 4.2 8.0 478 4845
r 2.270127 0 8 tcp 1040 ------- 0 4.2 8.0 479 4846
r 2.270959 0 8 tcp 1040 ------- 0 4.2 8.0 480 4847
r 2.271791 0 8 tcp 1040 ------- 0 4.2 8.0 481 4848
r 2.305072 0 8 tcp 1040 ------- 0 4.2 8.0 482 4895
r 2.305904 0 8 tcp 1040 ------- 0 4.2 8.0 483 4896
r 2.306736 0 8 tcp 1040 ------- 0 4.2 8.0 484 4897
r 2.307568 0 8 tcp 1040 ------- 0 4.2 8.0 485 4898
r 2.3084 0 8 tcp 1040 ------- 0 4.2 8.0 486 4900
r 2.309232 0 8 tcp 1040 ------- 0 4.2 8.0 487 4901
r 2.310064 0 8 tcp 1040 ------- 0 4.2 8.0 488 4903
r 2.310896 0 8 tcp 1040 ------- 0 4.2 8.0 489 4904
r 2.338352 0 8 tcp 1040 ------- 0 4.2 8.0 490 4977
r 2.339184 0 8 tcp 1040 ------- 0 4.2 8.0 491 4979
r 2.340016 0 8 tcp 1040 ------- 0 4.2 8.0 492 4981
r 2.340848 0 8 tcp 1040 ------- 0 4.2 8.0 493 4983
r 2.34168 0 8 tcp 1040 ------- 0 4.2 8.0 494 4985
r 2.342512 0 8 tcp 1040 ------- 0 4.2 8.0 495 4987
r 2.343344 0 8 tcp 1040 ------- 0 4.2 8.0 496 4989
r 2.344176 0 8 tcp 1040 ------- 0 4.2 8.0 497 4991
r 2.374128 0 8 tcp 1040 ------- 0 4.2 8.0 498 5060
r 2.37496 0 8 tcp 1040 ------- 0 4.2 8.0 499 5061
r 2.375792 0 8 tcp 1040 ------- 0 4.2 8.0 500 5063
r 2.376624 0 8 tcp 1040 ------- 0 4.2 8.0 501 5065
r 2.377456 0 8 tcp 1040 ------- 0 4.2 8.0 502 5067
r 2.378288 0 8 tcp 1040 ------- 0 4.2 8.0 503 5069
r 2.37912 0 8 tcp 1040 ------- 0 4.2 8.0 504 5071
r 2.379952 0 8 tcp 1040 ------- 0 4.2 8.0 505 5073
r 2.380784 0 8 tcp 1040 ------- 0 4.2 8.0 506 5075
r 2.414064 0 8 tcp 1040 ------- 0 4.2 8.0 507 5151
r 2.414896 0 8 tcp 1040 ------- 0 4.2 8.0 508 5153
r 2.415728 0 8 tcp 1040 ------- 0 4.2 8.0 509 5154
r 2.41656 0 8 tcp 1040 ------- 0 4.2 8.0 510 5156
r 2.417392 0 8 tcp 1040 ------- 0 4.2 8.0 511 5158
r 2.418224 0 8 tcp 1040 ------- 0 4.2 8.0 512 5160
r 2.419056 0 8 tcp 1040 ------- 0 4.2 8.0 513 5162
r 2.419888 0 8 tcp 1040 ------- 0 4.2 8.0 514 5164
r 2.42072 0 8 tcp 1040 ------- 0 4.2 8.0 515 5166
r 2.421552 0 8 tcp 1040 ------- 0 4.2 8.0 516 5168
r 2.45816 0 8 tcp 1040 ------- 0 4.2 8.0 517 5252
r 2.458992 0 8 tcp 1040 ------- 0 4.2 8.0 518 5254
r 2.459824 0 8 tcp 1040 ------- 0 4.2 8.0 519 5256
r 2.460656 0 8 tcp 1040 ------- 0 4.2 8.0 520 5258
r 2.461488 0 8 tcp 1040 ------- 0 4.2 8.0 521 5259
r 2.46232 0 8 tcp 1040 ------- 0 4.2 8.0 522 5261
r 2.463152 0 8 tcp 1040 ------- 0 4.2 8.0 523 5263
r 2.463984 0 8 tcp 1040 ------- 0 4.2 8.0 524 5265
r 2.464816 0 8 tcp 1040 ------- 0 4.2 8.0 525 5267
r 2.465648 0 8 tcp 1040 ------- 0 4.2 8.0 526 5269
r 2.46648 0 8 tcp 1040 ------- 0 4.2 8.0 527 5271
r 2.506416 0 8 tcp 1040 ------- 0 4.2 8.0 528 5363
r 2.507248 0 8 tcp 1040 ------- 0 4.2 8.0 529 5365
r 2.50808 0 8 tcp 1040 ------- 0 4.2 8.0 530 5367
r 2.508912 0 8 tcp 1040 ------- 0 4.2 8.0 531 5369
r 2.509744 0 8 tcp 1040 ------- 0 4.2 8.0 532 5371
r 2.510576 0 8 tcp 1040 ------- 0 4.2 8.0 533 5372
r 2.511408 0 8 tcp 1040 ------- 0 4.2 8.0 534 5374
r 2.51224 0 8 tcp 1040 ------- 0 4.2 8.0 535 5376
r 2.513072 0 8 tcp 1040 ------- 0 4.2 8.0 536 5378
r 2.513904 0 8 tcp 1040 ------- 0 4.2 8.0 537 5380
r 2.514736 0 8 tcp 1040 ------- 0 4.2 8.0 538 5382
r 2.515568 0 8 tcp 1040 ------- 0 4.2 8.0 539 5384
r 2.558832 0 8 tcp 1040 ------- 0 4.2 8.0 540 5484
r 2.559664 0 8 tcp 1040 ------- 0 4.2 8.0 541 5486
r 2.560496 0 8 tcp 1040 ------- 0 4.2 8.0 542 5488
r 2.561328 0 8 tcp 1040 ------- 0 4.2 8.0 543 5490
r 2.56216 0 8 tcp 1040 ------- 0 4.2 8.0 544 5492
r 2.562992 0 8 tcp 1040 ------- 0 4.2 8.0 545 5494
r 2.563824 0 8 tcp 1040 ------- 0 4.2 8.0 546 5496
r 2.564656 0 8 tcp 1040 ------- 0 4.2 8.0 547 5497
r 2.565488 0 8 tcp 1040 ------- 0 4.2 8.0 548 5499
r 2.56632 0 8 tcp 1040 ------- 0 4.2 8.0 549 5501
r 2.567152 0 8 tcp 1040 ------- 0 4.2 8.0 550 5503
r 2.567984 0 8 tcp 1040 ------- 0 4.2 8.0 551 5505
r 2.568816 0 8 tcp 1040 ------- 0 4.2 8.0 552 5507
r 2.615408 0 8 tcp 1040 ------- 0 4.2 8.0 553 5615
r 2.61624 0 8 tcp 1040 ------- 0 4.2 8.0 554 5617
r 2.617072 0 8 tcp 1040 ------- 0 4.2 8.0 555 5619
r 2.617904 0 8 tcp 1040 ------- 0 4.2 8.0 556 5621
r 2.618736 0 8 tcp 1040 ------- 0 4.2 8.0 557 5623
r 2.619568 0 8 tcp 1040 ------- 0 4.2 8.0 558 5625
r 2.6204 0 8 tcp 1040 ------- 0 4.2 8.0 559 5627
r 2.621232 0 8 tcp 1040 ------- 0 4.2 8.0 560 5629
r 2.622064 0 8 tcp 1040 ------- 0 4.2 8.0 561 5630
r 2.622896 0 8 tcp 1040 ------- 0 4.2 8.0 562 5632
r 2.623728 0 8 tcp 1040 ------- 0 4.2 8.0 563 5634
r 2.62456 0 8 tcp 1040 ------- 0 4.2 8.0 564 5636
r 2.625392 0 8 tcp 1040 ------- 0 4.2 8.0 565 5638
r 2.626224 0 8 tcp 1040 ------- 0 4.2 8.0 566 5640
r 2.676144 0 8 tcp 1040 ------- 0 4.2 8.0 567 5756
r 2.676976 0 8 tcp 1040 ------- 0 4.2 8.0 568 5758
r 2.677808 0 8 tcp 1040 ------- 0 4.2 8.0 569 5760
r 2.67864 0 8 tcp 1040 ------- 0 4.2 8.0 570 5762
r 2.679472 0 8 tcp 1040 ------- 0 4.2 8.0 571 5764
r 2.680304 0 8 tcp 1040 ------- 0 4.2 8.0 572 5766
r 2.681136 0 8 tcp 1040 ------- 0 4.2 8.0 573 5768
r 2.681968 0 8 tcp 1040 ------- 0 4.2 8.0 574 5770
r 2.6828 0 8 tcp 1040 ------- 0 4.2 8.0 575 5772
r 2.683632 0 8 tcp 1040 ------- 0 4.2 8.0 576 5774
r 2.684464 0 8 tcp 1040 ------- 0 4.2 8.0 577 5775
r 2.685296 0 8 tcp 1040 ------- 0 4.2 8.0 578 5777
r 2.686128 0 8 tcp 1040 ------- 0 4.2 8.0 579 5779
r 2.68696 0 8 tcp 1040 ------- 0 4.2 8.0 580 5781
r 2.687792 0 8 tcp 1040 ------- 0 4.2 8.0 581 5783
r 2.74104 0 8 tcp 1040 ------- 0 4.2 8.0 582 5907
r 2.741872 0 8 tcp 1040 ------- 0 4.2 8.0 583 5909
r 2.742704 0 8 tcp 1040 ------- 0 4.2 8.0 584 5911
r 2.743536 0 8 tcp 1040 ------- 0 4.2 8.0 585 5913
r 2.744368 0 8 tcp 1040 ------- 0 4.2 8.0 586 5915
r 2.7452 0 8 tcp 1040 ------- 0 4.2 8.0 587 5917