r 0.11111 0 7 tcp 40 ------- 0 4.1 7.0 0 1
r 0.136871 0 7 tcp 1040 ------- 0 4.1 7.0 1 22
r 0.137703 0 7 tcp 1040 ------- 0 4.1 7.0 2 23
r 0.162664 0 7 tcp 1040 ------- 0 4.1 7.0 3 60
r 0.163496 0 7 tcp 1040 ------- 0 4.1 7.0 4 61
r 0.164328 0 7 tcp 1040 ------- 0 4.1 7.0 5 63
r 0.16516 0 7 tcp 1040 ------- 0 4.1 7.0 6 64
r 0.199272 0 7 tcp 1040 ------- 0 4.1 7.0 7 126
r 0.200104 0 7 tcp 1040 ------- 0 4.1 7.0 8 127
r 0.200936 0 7 tcp 1040 ------- 0 4.1 7.0 9 129
r 0.201768 0 7 tcp 1040 ------- 0 4.1 7.0 10 130
r 0.2026 0 7 tcp 1040 ------- 0 4.1 7.0 11 132
r 0.203432 0 7 tcp 1040 ------- 0 4.1 7.0 12 133
r 0.204264 0 7 tcp 1040 ------- 0 4.1 7.0 13 135
r 0.205096 0 7 tcp 1040 ------- 0 4.1 7.0 14 136
r 0.264168 0 7 tcp 1040 ------- 0 4.1 7.0 15 258
r 0.265 0 7 tcp 1040 ------- 0 4.1 7.0 17 261
r 0.265832 0 7 tcp 1040 ------- 0 4.1 7.0 19 264
r 0.266664 0 7 tcp 1040 ------- 0 4.1 7.0 21 267
r 0.267496 0 7 tcp 1040 ------- 0 4.1 7.0 23 270
r 0.268328 0 7 tcp 1040 ------- 0 4.1 7.0 25 273
r 0.26916 0 7 tcp 1040 ------- 0 4.1 7.0 27 276
r 0.269992 0 7 tcp 1040 ------- 0 4.1 7.0 29 279
r 0.325736 0 7 tcp 1040 ------- 0 4.1 7.0 31 480
r 0.326568 0 7 tcp 1040 ------- 0 4.1 7.0 32 481
r 0.3274 0 7 tcp 1040 ------- 0 4.1 7.0 33 483
r 0.328232 0 7 tcp 1040 ------- 0 4.1 7.0 34 485
r 0.329064 0 7 tcp 1040 ---A--- 0 4.1 7.0 16 487
r 0.362344 0 7 tcp 1040 ------- 0 4.1 7.0 18 602
r 0.363176 0 7 tcp 1040 ------- 0 4.1 7.0 19 603
r 0.388969 0 7 tcp 1040 ------- 0 4.1 7.0 20 660
r 0.389801 0 7 tcp 1040 ------- 0 4.1 7.0 21 661
r 0.390633 0 7 tcp 1040 ------- 0 4.1 7.0 22 662
r 0.391465 0 7 tcp 1040 ------- 0 4.1 7.0 23 664
r 0.423913 0 7 tcp 1040 ------- 0 4.1 7.0 24 728
r 0.424745 0 7 tcp 1040 ------- 0 4.1 7.0 25 729
r 0.425577 0 7 tcp 1040 ------- 0 4.1 7.0 26 731
r 0.426409 0 7 tcp 1040 ------- 0 4.1 7.0 27 733
r 0.427241 0 7 tcp 1040 ------- 0 4.1 7.0 28 734
r 0.428073 0 7 tcp 1040 ------- 0 4.1 7.0 29 736
r 0.476329 0 7 tcp 1040 ------- 0 4.1 7.0 30 833
r 0.477161 0 7 tcp 1040 ------- 0 4.1 7.0 31 834
r 0.477993 0 7 tcp 1040 ------- 0 4.1 7.0 32 836
r 0.478825 0 7 tcp 1040 ------- 0 4.1 7.0 33 838
r 0.479657 0 7 tcp 1040 ------- 0 4.1 7.0 34 839
r 0.480489 0 7 tcp 1040 ------- 0 4.1 7.0 35 841
r 0.481321 0 7 tcp 1040 ------- 0 4.1 7.0 36 843
r 0.482153 0 7 tcp 1040 ------- 0 4.1 7.0 37 844
r 0.482985 0 7 tcp 1040 ------- 0 4.1 7.0 38 846
r 0.539561 0 7 tcp 1040 ------- 0 4.1 7.0 39 984
r 0.540393 0 7 tcp 1040 ------- 0 4.1 7.0 40 985
r 0.541225 0 7 tcp 1040 ------- 0 4.1 7.0 41 986
r 0.542057 0 7 tcp 1040 ------- 0 4.1 7.0 43 989
r 0.542889 0 7 tcp 1040 ------- 0 4.1 7.0 44 991
r 0.543721 0 7 tcp 1040 ------- 0 4.1 7.0 45 997
r 0.544553 0 7 tcp 1040 ------- 0 4.1 7.0 46 999
r 0.596137 0 7 tcp 1040 ------- 0 4.1 7.0 47 1129
r 0.596969 0 7 tcp 1040 ------- 0 4.1 7.0 48 1131
r 0.597801 0 7 tcp 1040 ------- 0 4.1 7.0 49 1133
r 0.598633 0 7 tcp 1040 ------- 0 4.1 7.0 50 1135
r 0.599465 0 7 tcp 1040 ------- 0 4.1 7.0 51 1137
r 0.600297 0 7 tcp 1040 ---A--- 0 4.1 7.0 42 1139
r 0.637737 0 7 tcp 1040 ------- 0 4.1 7.0 52 1252
r 0.638569 0 7 tcp 1040 ------- 0 4.1 7.0 53 1253
r 0.681001 0 7 tcp 1040 ------- 0 4.1 7.0 54 1349
r 0.681833 0 7 tcp 1040 ------- 0 4.1 7.0 55 1350
r 0.682665 0 7 tcp 1040 ------- 0 4.1 7.0 56 1352
r 0.683497 0 7 tcp 1040 ------- 0 4.1 7.0 57 1353
r 0.735081 0 7 tcp 1040 ------- 0 4.1 7.0 58 1466
r 0.735913 0 7 tcp 1040 ------- 0 4.1 7.0 59 1468
r 0.736745 0 7 tcp 1040 ------- 0 4.1 7.0 60 1470
r 0.737577 0 7 tcp 1040 ------- 0 4.1 7.0 61 1472
r 0.794153 0 7 tcp 1040 ------- 0 4.1 7.0 62 1602
r 0.794985 0 7 tcp 1040 ------- 0 4.1 7.0 63 1603
r 0.795817 0 7 tcp 1040 ------- 0 4.1 7.0 64 1605
r 0.796649 0 7 tcp 1040 ------- 0 4.1 7.0 65 1607
r 0.797481 0 7 tcp 1040 ------- 0 4.1 7.0 66 1609
r 0.859049 0 7 tcp 1040 ------- 0 4.1 7.0 67 1755
r 0.859881 0 7 tcp 1040 ------- 0 4.1 7.0 68 1757
r 0.860713 0 7 tcp 1040 ------- 0 4.1 7.0 70 1760
r 0.861545 0 7 tcp 1040 ------- 0 4.1 7.0 71 1762
r 0.862377 0 7 tcp 1040 ------- 0 4.1 7.0 72 1764
r 0.923945 0 7 tcp 1040 ------- 0 4.1 7.0 73 1916
r 0.924777 0 7 tcp 1040 ------- 0 4.1 7.0 74 1918
r 0.925609 0 7 tcp 1040 ------- 0 4.1 7.0 75 1920
r 0.926441 0 7 tcp 1040 ------- 0 4.1 7.0 76 1922
r 0.927273 0 7 tcp 1040 ---A--- 0 4.1 7.0 69 1924
r 0.981353 0 7 tcp 1040 ------- 0 4.1 7.0 77 2068
r 0.982185 0 7 tcp 1040 ------- 0 4.1 7.0 78 2069
r 1.006314 0 7 tcp 1040 ------- 0 4.1 7.0 79 2148
r 1.007146 0 7 tcp 1040 ------- 0 4.1 7.0 80 2149
r 1.007978 0 7 tcp 1040 ------- 0 4.1 7.0 81 2150
r 1.03377 0 7 tcp 1040 ------- 0 4.1 7.0 82 2198
r 1.034602 0 7 tcp 1040 ------- 0 4.1 7.0 83 2199
r 1.035434 0 7 tcp 1040 ------- 0 4.1 7.0 84 2200
r 1.036266 0 7 tcp 1040 ------- 0 4.1 7.0 85 2201
r 1.066218 0 7 tcp 1040 ------- 0 4.1 7.0 86 2264
r 1.06705 0 7 tcp 1040 ------- 0 4.1 7.0 87 2266
r 1.067882 0 7 tcp 1040 ------- 0 4.1 7.0 88 2268
r 1.068714 0 7 tcp 1040 ------- 0 4.1 7.0 89 2270
r 1.069546 0 7 tcp 1040 ------- 0 4.1 7.0 90 2271
r 1.111978 0 7 tcp 1040 ------- 0 4.1 7.0 91 2358
r 1.11281 0 7 tcp 1040 ------- 0 4.1 7.0 92 2360
r 1.113642 0 7 tcp 1040 ------- 0 4.1 7.0 93 2362
r 1.114474 0 7 tcp 1040 ------- 0 4.1 7.0 94 2364
r 1.115306 0 7 tcp 1040 ------- 0 4.1 7.0 95 2366
r 1.165226 0 7 tcp 1040 ------- 0 4.1 7.0 96 2477
r 1.166058 0 7 tcp 1040 ------- 0 4.1 7.0 97 2478
r 1.16689 0 7 tcp 1040 ------- 0 4.1 7.0 98 2480
r 1.167722 0 7 tcp 1040 ------- 0 4.1 7.0 99 2482
r 1.168554 0 7 tcp 1040 ------- 0 4.1 7.0 100 2484
r 1.169386 0 7 tcp 1040 ------- 0 4.1 7.0 101 2486
r 1.226794 0 7 tcp 1040 ------- 0 4.1 7.0 102 2615
r 1.227626 0 7 tcp 1040 ------- 0 4.1 7.0 103 2617
r 1.228458 0 7 tcp 1040 ------- 0 4.1 7.0 104 2618
r 1.22929 0 7 tcp 1040 ------- 0 4.1 7.0 105 2620
r 1.230122 0 7 tcp 1040 ------- 0 4.1 7.0 106 2622
r 1.230954 0 7 tcp 1040 ------- 0 4.1 7.0 107 2624
r 1.231786 0 7 tcp 1040 ------- 0 4.1 7.0 108 2626
r 1.290858 0 7 tcp 1040 ------- 0 4.1 7.0 109 2766
r 1.29169 0 7 tcp 1040 ------- 0 4.1 7.0 110 2768
r 1.292522 0 7 tcp 1040 ------- 0 4.1 7.0 111 2770
r 1.293354 0 7 tcp 1040 ------- 0 4.1 7.0 112 2771
r 1.294186 0 7 tcp 1040 ------- 0 4.1 7.0 113 2773
r 1.295018 0 7 tcp 1040 ------- 0 4.1 7.0 114 2775
r 1.29585 0 7 tcp 1040 ------- 0 4.1 7.0 115 2777
r 1.296682 0 7 tcp 1040 ------- 0 4.1 7.0 116 2779
r 1.355754 0 7 tcp 1040 ------- 0 4.1 7.0 117 2930
r 1.356586 0 7 tcp 1040 ------- 0 4.1 7.0 118 2932
r 1.357418 0 7 tcp 1040 ------- 0 4.1 7.0 119 2934
r 1.35825 0 7 tcp 1040 ------- 0 4.1 7.0 120 2936
r 1.359082 0 7 tcp 1040 ------- 0 4.1 7.0 121 2938
r 1.359914 0 7 tcp 1040 ------- 0 4.1 7.0 123 2941
r 1.360746 0 7 tcp 1040 ------- 0 4.1 7.0 124 2943
r 1.361578 0 7 tcp 1040 ------- 0 4.1 7.0 125 2945
r 1.396522 0 7 tcp 1040 ------- 0 4.1 7.0 126 3058
r 1.397354 0 7 tcp 1040 ------- 0 4.1 7.0 127 3060
r 1.398186 0 7 tcp 1040 ------- 0 4.1 7.0 128 3062
r 1.399018 0 7 tcp 1040 ------- 0 4.1 7.0 129 3064
r 1.39985 0 7 tcp 1040 ------- 0 4.1 7.0 130 3066
r 1.400682 0 7 tcp 1040 ------- 0 4.1 7.0 131 3068
r 1.401514 0 7 tcp 1040 ------- 0 4.1 7.0 132 3070
r 1.402346 0 7 tcp 1040 ---A--- 0 4.1 7.0 122 3072
r 1.426475 0 7 tcp 1040 ------- 0 4.1 7.0 133 3141
r 1.427307 0 7 tcp 1040 ------- 0 4.1 7.0 134 3142
r 1.456427 0 7 tcp 1040 ------- 0 4.1 7.0 135 3197
r 1.457259 0 7 tcp 1040 ------- 0 4.1 7.0 136 3198
r 1.458091 0 7 tcp 1040 ------- 0 4.1 7.0 137 3200
r 1.458923 0 7 tcp 1040 ------- 0 4.1 7.0 138 3201
r 1.492203 0 7 tcp 1040 ------- 0 4.1 7.0 139 3276
r 1.493035 0 7 tcp 1040 ------- 0 4.1 7.0 140 3278
r 1.493867 0 7 tcp 1040 ------- 0 4.1 7.0 141 3280
r 1.494699 0 7 tcp 1040 ------- 0 4.1 7.0 142 3282
r 1.535467 0 7 tcp 1040 ------- 0 4.1 7.0 143 3371
r 1.536299 0 7 tcp 1040 ------- 0 4.1 7.0 144 3372
r 1.537131 0 7 tcp 1040 ------- 0 4.1 7.0 145 3374
r 1.537963 0 7 tcp 1040 ------- 0 4.1 7.0 146 3376
r 1.538795 0 7 tcp 1040 ------- 0 4.1 7.0 147 3378
r 1.587051 0 7 tcp 1040 ------- 0 4.1 7.0 148 3485
r 1.587883 0 7 tcp 1040 ------- 0 4.1 7.0 149 3487
r 1.588715 0 7 tcp 1040 ------- 0 4.1 7.0 150 3488
r 1.589547 0 7 tcp 1040 ------- 0 4.1 7.0 151 3490
r 1.590379 0 7 tcp 1040 ------- 0 4.1 7.0 152 3492
r 1.591211 0 7 tcp 1040 ------- 0 4.1 7.0 153 3494
r 1.646123 0 7 tcp 1040 ------- 0 4.1 7.0 154 3618
r 1.646955 0 7 tcp 1040 ------- 0 4.1 7.0 155 3620
r 1.647787 0 7 tcp 1040 ------- 0 4.1 7.0 156 3622
r 1.648619 0 7 tcp 1040 ------- 0 4.1 7.0 157 3624
r 1.649451 0 7 tcp 1040 ------- 0 4.1 7.0 158 3625
r 1.650283 0 7 tcp 1040 ------- 0 4.1 7.0 159 3627
r 1.651115 0 7 tcp 1040 ------- 0 4.1 7.0 160 3629
r 1.711019 0 7 tcp 1040 ------- 0 4.1 7.0 161 3770
r 1.711851 0 7 tcp 1040 ------- 0 4.1 7.0 162 3772
r 1.712683 0 7 tcp 1040 ------- 0 4.1 7.0 163 3774
r 1.713515 0 7 tcp 1040 ------- 0 4.1 7.0 164 3776
r 1.714347 0 7 tcp 1040 ------- 0 4.1 7.0 165 3778
r 1.715179 0 7 tcp 1040 ------- 0 4.1 7.0 167 3781
r 1.716011 0 7 tcp 1040 ------- 0 4.1 7.0 168 3783
r 1.775915 0 7 tcp 1040 ------- 0 4.1 7.0 169 3933
r 1.776747 0 7 tcp 1040 ------- 0 4.1 7.0 170 3935
r 1.777579 0 7 tcp 1040 ------- 0 4.1 7.0 171 3937
r 1.778411 0 7 tcp 1040 ------- 0 4.1 7.0 172 3939
r 1.779243 0 7 tcp 1040 ------- 0 4.1 7.0 173 3941
r 1.780075 0 7 tcp 1040 ------- 0 4.1 7.0 174 3943
r 1.780907 0 7 tcp 1040 ------- 0 4.1 7.0 175 3945
r 1.825003 0 7 tcp 1040 ---A--- 0 4.1 7.0 166 4070
r 1.851628 0 7 tcp 1040 ------- 0 4.1 7.0 176 4151
r 1.85246 0 7 tcp 1040 ------- 0 4.1 7.0 177 4152
r 1.880749 0 7 tcp 1040 ------- 0 4.1 7.0 178 4198
r 1.881581 0 7 tcp 1040 ------- 0 4.1 7.0 179 4199
r 1.882413 0 7 tcp 1040 ------- 0 4.1 7.0 180 4201
r 1.883245 0 7 tcp 1040 ------- 0 4.1 7.0 181 4202
r 1.914029 0 7 tcp 1040 ------- 0 4.1 7.0 182 4269
r 1.914861 0 7 tcp 1040 ------- 0 4.1 7.0 183 4271
r 1.915693 0 7 tcp 1040 ------- 0 4.1 7.0 184 4273
r 1.916525 0 7 tcp 1040 ------- 0 4.1 7.0 185 4275
r 1.953965 0 7 tcp 1040 ------- 0 4.1 7.0 186 4357
r 1.954797 0 7 tcp 1040 ------- 0 4.1 7.0 187 4358
r 1.955629 0 7 tcp 1040 ------- 0 4.1 7.0 188 4360
r 1.956461 0 7 tcp 1040 ------- 0 4.1 7.0 189 4362
r 1.957293 0 7 tcp 1040 ------- 0 4.1 7.0 190 4364
r 2.001389 0 7 tcp 1040 ------- 0 4.1 7.0 191 4462
r 2.002221 0 7 tcp 1040 ------- 0 4.1 7.0 192 4464
r 2.003053 0 7 tcp 1040 ------- 0 4.1 7.0 193 4465
r 2.003885 0 7 tcp 1040 ------- 0 4.1 7.0 194 4467
r 2.004717 0 7 tcp 1040 ------- 0 4.1 7.0 195 4469
r 2.005549 0 7 tcp 1040 ------- 0 4.1 7.0 196 4471
r 2.057133 0 7 tcp 1040 ------- 0 4.1 7.0 197 4586
r 2.057965 0 7 tcp 1040 ------- 0 4.1 7.0 198 4588
r 2.058797 0 7 tcp 1040 ------- 0 4.1 7.0 199 4590
r 2.059629 0 7 tcp 1040 ------- 0 4.1 7.0 200 4592
r 2.060461 0 7 tcp 1040 ------- 0 4.1 7.0 201 4593
r 2.061293 0 7 tcp 1040 ------- 0 4.1 7.0 202 4595
r 2.062125 0 7 tcp 1040 ------- 0 4.1 7.0 203 4597
r 2.121197 0 7 tcp 1040 ------- 0 4.1 7.0 204 4730
r 2.122029 0 7 tcp 1040 ------- 0 4.1 7.0 205 4732
r 2.122861 0 7 tcp 1040 ------- 0 4.1 7.0 206 4734
r 2.123693 0 7 tcp 1040 ------- 0 4.1 7.0 207 4736
r 2.124525 0 7 tcp 1040 ------- 0 4.1 7.0 208 4738
r 2.125357 0 7 tcp 1040 ------- 0 4.1 7.0 209 4739
r 2.126189 0 7 tcp 1040 ------- 0 4.1 7.0 210 4741
r 2.127021 0 7 tcp 1040 ------- 0 4.1 7.0 211 4743
r 2.186093 0 7 tcp 1040 ------- 0 4.1 7.0 212 4894
r 2.186925 0 7 tcp 1040 ------- 0 4.1 7.0 213 4896
r 2.187757 0 7 tcp 1040 ------- 0 4.1 7.0 214 4898
r 2.188589 0 7 tcp 1040 ------- 0 4.1 7.0 215 4900
r 2.189421 0 7 tcp 1040 ------- 0 4.1 7.0 216 4902
r 2.190253 0 7 tcp 1040 ------- 0 4.1 7.0 217 4904
r 2.191085 0 7 tcp 1040 ------- 0 4.1 7.0 218 4906
r 2.191917 0 7 tcp 1040 ------- 0 4.1 7.0 220 4909
r 2.250157 0 7 tcp 1040 ------- 0 4.1 7.0 221 5050
r 2.250989 0 7 tcp 1040 ------- 0 4.1 7.0 222 5052
r 2.251821 0 7 tcp 1040 ------- 0 4.1 7.0 223 5054
r 2.252653 0 7 tcp 1040 ------- 0 4.1 7.0 224 5056
r 2.253485 0 7 tcp 1040 ------- 0 4.1 7.0 225 5058
r 2.254317 0 7 tcp 1040 ------- 0 4.1 7.0 226 5060
r 2.255149 0 7 tcp 1040 ------- 0 4.1 7.0 227 5062
r 2.255981 0 7 tcp 1040 ------- 0 4.1 7.0 228 5064
r 2.274286 0 7 tcp 1040 ------- 0 4.1 7.0 229 5152
r 2.275118 0 7 tcp 1040 ---A--- 0 4.1 7.0 219 5154
r 2.299246 0 7 tcp 1040 ------- 0 4.1 7.0 230 5193
r 2.300078 0 7 tcp 1040 ------- 0 4.1 7.0 231 5194
r 2.335854 0 7 tcp 1040 ------- 0 4.1 7.0 232 5253
r 2.336686 0 7 tcp 1040 ------- 0 4.1 7.0 233 5254
r 2.337518 0 7 tcp 1040 ------- 0 4.1 7.0 234 5256
r 2.33835 0 7 tcp 1040 ------- 0 4.1 7.0 235 5257
r 2.369966 0 7 tcp 1040 ------- 0 4.1 7.0 236 5338
r 2.370798 0 7 tcp 1040 ------- 0 4.1 7.0 237 5340
r 2.37163 0 7 tcp 1040 ------- 0 4.1 7.0 238 5342
r 2.372462 0 7 tcp 1040 ------- 0 4.1 7.0 239 5344
r 2.411566 0 7 tcp 1040 ------- 0 4.1 7.0 240 5429
r 2.412398 0 7 tcp 1040 ------- 0 4.1 7.0 241 5430
r 2.41323 0 7 tcp 1040 ------- 0 4.1 7.0 242 5432
r 2.414062 0 7 tcp 1040 ------- 0 4.1 7.0 243 5434
r 2.414894 0 7 tcp 1040 ------- 0 4.1 7.0 244 5436
r 2.461486 0 7 tcp 1040 ------- 0 4.1 7.0 245 5539
r 2.462318 0 7 tcp 1040 ------- 0 4.1 7.0 246 5541
r 2.46315 0 7 tcp 1040 ------- 0 4.1 7.0 247 5542
r 2.463982 0 7 tcp 1040 ------- 0 4.1 7.0 248 5544
r 2.464814 0 7 tcp 1040 ------- 0 4.1 7.0 249 5546
r 2.465646 0 7 tcp 1040 ------- 0 4.1 7.0 250 5548
r 2.519726 0 7 tcp 1040 ------- 0 4.1 7.0 251 5669
r 2.520558 0 7 tcp 1040 ------- 0 4.1 7.0 252 5671
r 2.52139 0 7 tcp 1040 ------- 0 4.1 7.0 253 5673
r 2.522222 0 7 tcp 1040 ------- 0 4.1 7.0 254 5675
r 2.523054 0 7 tcp 1040 ------- 0 4.1 7.0 255 5676
r 2.523886 0 7 tcp 1040 ------- 0 4.1 7.0 256 5678
r 2.524718 0 7 tcp 1040 ------- 0 4.1 7.0 257 5680
r 2.584622 0 7 tcp 1040 ------- 0 4.1 7.0 258 5819
r 2.585454 0 7 tcp 1040 ------- 0 4.1 7.0 259 5821
r 2.586286 0 7 tcp 1040 ------- 0 4.1 7.0 260 5823
r 2.587118 0 7 tcp 1040 ------- 0 4.1 7.0 261 5825
r 2.58795 0 7 tcp 1040 ------- 0 4.1 7.0 262 5827
r 2.588782 0 7 tcp 1040 ------- 0 4.1 7.0 264 5830
r 2.589614 0 7 tcp 1040 ------- 0 4.1 7.0 265 5832
r 2.649518 0 7 tcp 1040 ------- 0 4.1 7.0 266 5983
r 2.65035 0 7 tcp 1040 ------- 0 4.1 7.0 267 5985
r 2.651182 0 7 tcp 1040 ------- 0 4.1 7.0 268 5987
r 2.652014 0 7 tcp 1040 ------- 0 4.1 7.0 269 5989
r 2.652846 0 7 tcp 1040 ------- 0 4.1 7.0 270 5991
r 2.653678 0 7 tcp 1040 ------- 0 4.1 7.0 271 5993
r 2.65451 0 7 tcp 1040 ------- 0 4.1 7.0 272 5995
r 2.70443 0 7 tcp 1040 ---A--- 0 4.1 7.0 263 6127
r 2.730223 0 7 tcp 1040 ------- 0 4.1 7.0 273 6211
r 2.731055 0 7 tcp 1040 ------- 0 4.1 7.0 274 6212
r 2.75768 0 7 tcp 1040 ------- 0 4.1 7.0 275 6255
r 2.758512 0 7 tcp 1040 ------- 0 4.1 7.0 276 6256
r 2.759344 0 7 tcp 1040 ------- 0 4.1 7.0 277 6257
r 2.760176 0 7 tcp 1040 ------- 0 4.1 7.0 278 6258
r 2.79096 0 7 tcp 1040 ------- 0 4.1 7.0 279 6319
r 2.791792 0 7 tcp 1040 ------- 0 4.1 7.0 280 6321
r 2.792624 0 7 tcp 1040 ------- 0 4.1 7.0 281 6323
r 2.793456 0 7 tcp 1040 ------- 0 4.1 7.0 282 6325
r 2.826736 0 7 tcp 1040 ------- 0 4.1 7.0 283 6402
r 2.827568 0 7 tcp 1040 ------- 0 4.1 7.0 284 6403
r 2.8284 0 7 tcp 1040 ------- 0 4.1 7.0 285 6405
r 2.829232 0 7 tcp 1040 ------- 0 4.1 7.0 286 6407
r 2.830064 0 7 tcp 1040 ------- 0 4.1 7.0 287 6409
r 2.870832 0 7 tcp 1040 ------- 0 4.1 7.0 288 6498
r 2.871664 0 7 tcp 1040 ------- 0 4.1 7.0 289 6500
r 2.872496 0 7 tcp 1040 ------- 0 4.1 7.0 290 6501
r 2.873328 0 7 tcp 1040 ------- 0 4.1 7.0 291 6503
r 2.87416 0 7 tcp 1040 ------- 0 4.1 7.0 292 6505
r 2.874992 0 7 tcp 1040 ------- 0 4.1 7.0 293 6507
r 2.923248 0 7 tcp 1040 ------- 0 4.1 7.0 294 6614
r 2.92408 0 7 tcp 1040 ------- 0 4.1 7.0 295 6616
r 2.924912 0 7 tcp 1040 ------- 0 4.1 7.0 296 6618
r 2.925744 0 7 tcp 1040 ------- 0 4.1 7.0 297 6620
r 2.926576 0 7 tcp 1040 ------- 0 4.1 7.0 298 6621
r 2.927408 0 7 tcp 1040 ------- 0 4.1 7.0 299 6623
r 2.92824 0 7 tcp 1040 ------- 0 4.1 7.0 300 6625
r 2.983984 0 7 tcp 1040 ------- 0 4.1 7.0 301 6750
r 2.984816 0 7 tcp 1040 ------- 0 4.1 7.0 302 6752
r 2.985648 0 7 tcp 1040 ------- 0 4.1 7.0 303 6754
r 2.98648 0 7 tcp 1040 ------- 0 4.1 7.0 304 6756
r 2.987312 0 7 tcp 1040 ------- 0 4.1 7.0 305 6758
r 2.988144 0 7 tcp 1040 ------- 0 4.1 7.0 306 6759
r 2.988976 0 7 tcp 1040 ------- 0 4.1 7.0 307 6761
r 2.989808 0 7 tcp 1040 ------- 0 4.1 7.0 308 6763
r 3.04888 0 7 tcp 1040 ------- 0 4.1 7.0 309 6906
r 3.049712 0 7 tcp 1040 ------- 0 4.1 7.0 310 6908
r 3.050544 0 7 tcp 1040 ------- 0 4.1 7.0 311 6910
r 3.051376 0 7 tcp 1040 ------- 0 4.1 7.0 312 6912
r 3.052208 0 7 tcp 1040 ------- 0 4.1 7.0 313 6914
r 3.05304 0 7 tcp 1040 ------- 0 4.1 7.0 314 6916
r 3.053872 0 7 tcp 1040 ------- 0 4.1 7.0 315 6938
r 3.054704 0 7 tcp 1040 ------- 0 4.1 7.0 317 6941
r 3.113776 0 7 tcp 1040 ------- 0 4.1 7.0 318 7127
r 3.114608 0 7 tcp 1040 ------- 0 4.1 7.0 319 7129
r 3.11544 0 7 tcp 1040 ------- 0 4.1 7.0 320 7131
r 3.116272 0 7 tcp 1040 ------- 0 4.1 7.0 321 7133
r 3.117104 0 7 tcp 1040 ------- 0 4.1 7.0 322 7135
r 3.117936 0 7 tcp 1040 ------- 0 4.1 7.0 323 7137
r 3.118768 0 7 tcp 1040 ------- 0 4.1 7.0 324 7154
r 3.1196 0 7 tcp 1040 ------- 0 4.1 7.0 325 7155
r 3.154544 0 7 tcp 1040 ------- 0 4.1 7.0 326 7304
r 3.155376 0 7 tcp 1040 ---A--- 0 4.1 7.0 316 7305
r 3.185207 0 7 tcp 1040 ------- 0 4.1 7.0 327 7416
r 3.186039 0 7 tcp 1040 ------- 0 4.1 7.0 328 7417
r 3.224473 0 7 tcp 1040 ------- 0 4.1 7.0 329 7501
r 3.225305 0 7 tcp 1040 ------- 0 4.1 7.0 330 7502
r 3.226137 0 7 tcp 1040 ------- 0 4.1 7.0 331 7503
r 3.226969 0 7 tcp 1040 ------- 0 4.1 7.0 332 7504
r 3.265241 0 7 tcp 1040 ------- 0 4.1 7.0 333 7619
r 3.266073 0 7 tcp 1040 ------- 0 4.1 7.0 334 7621
r 3.266905 0 7 tcp 1040 ------- 0 4.1 7.0 335 7622
r 3.267737 0 7 tcp 1040 ------- 0 4.1 7.0 336 7623
r 3.311001 0 7 tcp 1040 ------- 0 4.1 7.0 337 7760
r 3.311833 0 7 tcp 1040 ------- 0 4.1 7.0 338 7761
r 3.312665 0 7 tcp 1040 ------- 0 4.1 7.0 339 7763
r 3.313497 0 7 tcp 1040 ------- 0 4.1 7.0 340 7765
r 3.314329 0 7 tcp 1040 ------- 0 4.1 7.0 341 7767
r 3.365081 0 7 tcp 1040 ------- 0 4.1 7.0 342 7920
r 3.365913 0 7 tcp 1040 ------- 0 4.1 7.0 343 7922
r 3.366745 0 7 tcp 1040 ------- 0 4.1 7.0 344 7923
r 3.367577 0 7 tcp 1040 ------- 0 4.1 7.0 345 7925
r 3.368409 0 7 tcp 1040 ------- 0 4.1 7.0 346 7927
r 3.369241 0 7 tcp 1040 ------- 0 4.1 7.0 347 7929
r 3.427481 0 7 tcp 1040 ------- 0 4.1 7.0 348 8100
r 3.428313 0 7 tcp 1040 ------- 0 4.1 7.0 349 8102
r 3.429145 0 7 tcp 1040 ------- 0 4.1 7.0 350 8104
r 3.429977 0 7 tcp 1040 ------- 0 4.1 7.0 351 8106
r 3.430809 0 7 tcp 1040 ------- 0 4.1 7.0 352 8107
r 3.431641 0 7 tcp 1040 ------- 0 4.1 7.0 353 8109
r 3.432473 0 7 tcp 1040 ------- 0 4.1 7.0 354 8111
r 3.492377 0 7 tcp 1040 ------- 0 4.1 7.0 355 8300
r 3.493209 0 7 tcp 1040 ------- 0 4.1 7.0 356 8302
r 3.494041 0 7 tcp 1040 ------- 0 4.1 7.0 357 8319
r 3.494873 0 7 tcp 1040 ------- 0 4.1 7.0 358 8320
r 3.495705 0 7 tcp 1040 ------- 0 4.1 7.0 359 8321
r 3.496537 0 7 tcp 1040 ------- 0 4.1 7.0 360 8322
r 3.497369 0 7 tcp 1040 ------- 0 4.1 7.0 361 8323
r 3.498201 0 7 tcp 1040 ------- 0 4.1 7.0 362 8324
r 3.557273 0 7 tcp 1040 ------- 0 4.1 7.0 363 8505
r 3.558105 0 7 tcp 1040 ------- 0 4.1 7.0 364 8506
r 3.558937 0 7 tcp 1040 ------- 0 4.1 7.0 365 8507
r 3.559769 0 7 tcp 1040 ------- 0 4.1 7.0 366 8508
r 3.560601 0 7 tcp 1040 ------- 0 4.1 7.0 367 8510
r 3.561433 0 7 tcp 1040 ------- 0 4.1 7.0 368 8512
r 3.562265 0 7 tcp 1040 ------- 0 4.1 7.0 369 8514
r 3.563097 0 7 tcp 1040 ------- 0 4.1 7.0 370 8515
r 3.563929 0 7 tcp 1040 ------- 0 4.1 7.0 371 8537
r 3.604697 0 7 tcp 1040 ------- 0 4.1 7.0 372 8699
r 3.605529 0 7 tcp 1040 ------- 0 4.1 7.0 373 8701
r 3.606361 0 7 tcp 1040 ------- 0 4.1 7.0 374 8703
r 3.607193 0 7 tcp 1040 ------- 0 4.1 7.0 375 8705
r 3.608025 0 7 tcp 1040 ------- 0 4.1 7.0 376 8707
r 3.608857 0 7 tcp 1040 ------- 0 4.1 7.0 377 8709
r 3.609689 0 7 tcp 1040 ------- 0 4.1 7.0 378 8711
r 3.610521 0 7 tcp 1040 ------- 0 4.1 7.0 379 8728
r 3.611353 0 7 tcp 1040 ------- 0 4.1 7.0 380 8729
r 3.612185 0 7 tcp 1040 ------- 0 4.1 7.0 381 8730
r 3.637977 0 7 tcp 1040 ------- 0 4.1 7.0 382 8816
r 3.638809 0 7 tcp 1040 ------- 0 4.1 7.0 383 8838
r 3.639641 0 7 tcp 1040 ------- 0 4.1 7.0 384 8840
r 3.640473 0 7 tcp 1040 ------- 0 4.1 7.0 385 8842
r 3.641305 0 7 tcp 1040 ------- 0 4.1 7.0 386 8844
r 3.642137 0 7 tcp 1040 ------- 0 4.1 7.0 387 8846
r 3.642969 0 7 tcp 1040 ------- 0 4.1 7.0 388 8848
r 3.643801 0 7 tcp 1040 ------- 0 4.1 7.0 389 8850
r 3.644633 0 7 tcp 1040 ------- 0 4.1 7.0 390 8852
r 3.645465 0 7 tcp 1040 ------- 0 4.1 7.0 391 8853
r 3.646297 0 7 tcp 1040 ------- 0 4.1 7.0 392 8855
r 3.685654 0 7 tcp 1040 ------- 0 4.1 7.0 393 8950
r 3.686486 0 7 tcp 1040 ------- 0 4.1 7.0 394 8952
r 3.687318 0 7 tcp 1040 ------- 0 4.1 7.0 395 8953
r 3.68815 0 7 tcp 1040 ------- 0 4.1 7.0 396 8954
r 3.688982 0 7 tcp 1040 ------- 0 4.1 7.0 397 8955
r 3.689814 0 7 tcp 1040 ------- 0 4.1 7.0 398 8957
r 3.690646 0 7 tcp 1040 ------- 0 4.1 7.0 399 8974
r 3.691478 0 7 tcp 1040 ------- 0 4.1 7.0 400 8975
r 3.69231 0 7 tcp 1040 ------- 0 4.1 7.0 401 8976
r 3.693142 0 7 tcp 1040 ------- 0 4.1 7.0 402 8977
r 3.693974 0 7 tcp 1040 ------- 0 4.1 7.0 403 8978
r 3.694806 0 7 tcp 1040 ------- 0 4.1 7.0 404 8979
r 3.736406 0 7 tcp 1040 ------- 0 4.1 7.0 405 9105
r 3.737238 0 7 tcp 1040 ------- 0 4.1 7.0 406 9107
r 3.73807 0 7 tcp 1040 ------- 0 4.1 7.0 407 9109
r 3.738902 0 7 tcp 1040 ------- 0 4.1 7.0 408 9111
r 3.739734 0 7 tcp 1040 ------- 0 4.1 7.0 409 9113
r 3.740566 0 7 tcp 1040 ------- 0 4.1 7.0 410 9115
r 3.741398 0 7 tcp 1040 ------- 0 4.1 7.0 411 9117
r 3.74223 0 7 tcp 1040 ------- 0 4.1 7.0 412 9119
r 3.743062 0 7 tcp 1040 ------- 0 4.1 7.0 413 9121
r 3.743894 0 7 tcp 1040 ------- 0 4.1 7.0 414 9123
r 3.744726 0 7 tcp 1040 ------- 0 4.1 7.0 415 9125
r 3.745558 0 7 tcp 1040 ------- 0 4.1 7.0 416 9127
r 3.74639 0 7 tcp 1040 ------- 0 4.1 7.0 417 9128
r 3.792982 0 7 tcp 1040 ------- 0 4.1 7.0 418 9254
r 3.793814 0 7 tcp 1040 ------- 0 4.1 7.0 419 9256
r 3.794646 0 7 tcp 1040 ------- 0 4.1 7.0 420 9258
r 3.795478 0 7 tcp 1040 ------- 0 4.1 7.0 421 9260
r 3.79631 0 7 tcp 1040 ------- 0 4.1 7.0 422 9282
r 3.797142 0 7 tcp 1040 ------- 0 4.1 7.0 423 9284
r 3.797974 0 7 tcp 1040 ------- 0 4.1 7.0 424 9286
r 3.798806 0 7 tcp 1040 ------- 0 4.1 7.0 425 9288
r 3.799638 0 7 tcp 1040 ------- 0 4.1 7.0 426 9290
r 3.80047 0 7 tcp 1040 ------- 0 4.1 7.0 427 9292
r 3.801302 0 7 tcp 1040 ------- 0 4.1 7.0 428 9294
r 3.802134 0 7 tcp 1040 ------- 0 4.1 7.0 429 9296
r 3.802966 0 7 tcp 1040 ------- 0 4.1 7.0 430 9298
r 3.856214 0 7 tcp 1040 ------- 0 4.1 7.0 431 9458
r 3.857046 0 7 tcp 1040 ------- 0 4.1 7.0 432 9459
r 3.857878 0 7 tcp 1040 ------- 0 4.1 7.0 433 9461
r 3.85871 0 7 tcp 1040 ------- 0 4.1 7.0 434 9463
r 3.859542 0 7 tcp 1040 ------- 0 4.1 7.0 435 9465
r 3.860374 0 7 tcp 1040 ------- 0 4.1 7.0 436 9467
r 3.861206 0 7 tcp 1040 ------- 0 4.1 7.0 437 9469
r 3.862038 0 7 tcp 1040 ------- 0 4.1 7.0 438 9471
r 3.86287 0 7 tcp 1040 ------- 0 4.1 7.0 439 9473
r 3.863702 0 7 tcp 1040 ------- 0 4.1 7.0 440 9475
r 3.864534 0 7 tcp 1040 ------- 0 4.1 7.0 441 9477
r 3.865366 0 7 tcp 1040 ------- 0 4.1 7.0 442 9479
r 3.866198 0 7 tcp 1040 ------- 0 4.1 7.0 443 9481
r 3.86703 0 7 tcp 1040 ------- 0 4.1 7.0 444 9483
r 3.92111 0 7 tcp 1040 ------- 0 4.1 7.0 445 9660
r 3.921942 0 7 tcp 1040 ------- 0 4.1 7.0 446 9662
r 3.922774 0 7 tcp 1040 ------- 0 4.1 7.0 448 9680
r 3.923606 0 7 tcp 1040 ------- 0 4.1 7.0 449 9681
r 3.924438 0 7 tcp 1040 ------- 0 4.1 7.0 450 9682
r 3.92527 0 7 tcp 1040 ------- 0 4.1 7.0 451 9683
r 3.926102 0 7 tcp 1040 ------- 0 4.1 7.0 452 9684
r 3.926934 0 7 tcp 1040 ------- 0 4.1 7.0 453 9685
r 3.927766 0 7 tcp 1040 ------- 0 4.1 7.0 454 9686
r 3.928598 0 7 tcp 1040 ------- 0 4.1 7.0 455 9687
r 3.92943 0 7 tcp 1040 ------- 0 4.1 7.0 456 9688
r 3.930262 0 7 tcp 1040 ------- 0 4.1 7.0 457 9689
r 3.931094 0 7 tcp 1040 ------- 0 4.1 7.0 458 9690
r 3.931926 0 7 tcp 1040 ------- 0 4.1 7.0 459 9691
r 3.982678 0 7 tcp 1040 ------- 0 4.1 7.0 460 9858
r 3.98351 0 7 tcp 1040 ------- 0 4.1 7.0 461 9859
r 3.984342 0 7 tcp 1040 ------- 0 4.1 7.0 462 9860
r 3.985174 0 7 tcp 1040 ------- 0 4.1 7.0 463 9861
r 3.986006 0 7 tcp 1040 ---A--- 0 4.1 7.0 447 9863
r 4.019286 0 7 tcp 1040 ------- 0 4.1 7.0 464 10037
r 4.020118 0 7 tcp 1040 ------- 0 4.1 7.0 465 10038
r 4.061486 0 7 tcp 1040 ------- 0 4.1 7.0 466 10156
r 4.062318 0 7 tcp 1040 ------- 0 4.1 7.0 467 10157
r 4.06315 0 7 tcp 1040 ------- 0 4.1 7.0 468 10158
r 4.063982 0 7 tcp 1040 ------- 0 4.1 7.0 469 10159
r 4.113902 0 7 tcp 1040 ------- 0 4.1 7.0 470 10296
r 4.114734 0 7 tcp 1040 ------- 0 4.1 7.0 471 10297
r 4.115566 0 7 tcp 1040 ------- 0 4.1 7.0 472 10299
r 4.116398 0 7 tcp 1040 ------- 0 4.1 7.0 473 10300
r 4.11723 0 7 tcp 1040 ------- 0 4.1 7.0 474 10302
r 4.118062 0 7 tcp 1040 ------- 0 4.1 7.0 475 10303
r 4.118894 0 7 tcp 1040 ------- 0 4.1 7.0 476 10305
r 4.172974 0 7 tcp 1040 ------- 0 4.1 7.0 477 10450
r 4.173806 0 7 tcp 1040 ------- 0 4.1 7.0 478 10472
r 4.174638 0 7 tcp 1040 ------- 0 4.1 7.0 479 10474
r 4.17547 0 7 tcp 1040 ------- 0 4.1 7.0 480 10476
r 4.176302 0 7 tcp 1040 ------- 0 4.1 7.0 481 10478
r 4.177134 0 7 tcp 1040 ------- 0 4.1 7.0 482 10480
r 4.177966 0 7 tcp 1040 ------- 0 4.1 7.0 483 10482
r 4.178798 0 7 tcp 1040 ------- 0 4.1 7.0 484 10483
r 4.23787 0 7 tcp 1040 ------- 0 4.1 7.0 485 10660
r 4.238702 0 7 tcp 1040 ------- 0 4.1 7.0 486 10662
r 4.239534 0 7 tcp 1040 ------- 0 4.1 7.0 487 10664
r 4.240366 0 7 tcp 1040 ------- 0 4.1 7.0 488 10666
r 4.241198 0 7 tcp 1040 ------- 0 4.1 7.0 489 10668
r 4.24203 0 7 tcp 1040 ------- 0 4.1 7.0 490 10670
r 4.242862 0 7 tcp 1040 ------- 0 4.1 7.0 491 10672
r 4.243694 0 7 tcp 1040 ------- 0 4.1 7.0 492 10689
r 4.244526 0 7 tcp 1040 ------- 0 4.1 7.0 493 10690
r 4.303598 0 7 tcp 1040 ------- 0 4.1 7.0 494 10873
r 4.30443 0 7 tcp 1040 ------- 0 4.1 7.0 495 10874
r 4.305262 0 7 tcp 1040 ------- 0 4.1 7.0 496 10875
r 4.306094 0 7 tcp 1040 ------- 0 4.1 7.0 497 10876
r 4.306926 0 7 tcp 1040 ------- 0 4.1 7.0 498 10877
r 4.307758 0 7 tcp 1040 ------- 0 4.1 7.0 499 10878
r 4.30859 0 7 tcp 1040 ------- 0 4.1 7.0 500 10879
r 4.309422 0 7 tcp 1040 ------- 0 4.1 7.0 501 10880
r 4.310254 0 7 tcp 1040 ------- 0 4.1 7.0 502 10881
r 4.364334 0 7 tcp 1040 ------- 0 4.1 7.0 503 11080
r 4.365166 0 7 tcp 1040 ------- 0 4.1 7.0 504 11081
r 4.365998 0 7 tcp 1040 ------- 0 4.1 7.0 505 11083
r 4.36683 0 7 tcp 1040 ------- 0 4.1 7.0 506 11085
r 4.367662 0 7 tcp 1040 ------- 0 4.1 7.0 507 11087
r 4.368494 0 7 tcp 1040 ------- 0 4.1 7.0 508 11089
r 4.369326 0 7 tcp 1040 ------- 0 4.1 7.0 509 11091
r 4.370158 0 7 tcp 1040 ------- 0 4.1 7.0 510 11093
r 4.37099 0 7 tcp 1040 ------- 0 4.1 7.0 511 11095
r 4.371822 0 7 tcp 1040 ------- 0 4.1 7.0 512 11097
r 4.411758 0 7 tcp 1040 ------- 0 4.1 7.0 513 11250
r 4.41259 0 7 tcp 1040 ------- 0 4.1 7.0 514 11252
r 4.413422 0 7 tcp 1040 ------- 0 4.1 7.0 515 11253
r 4.414254 0 7 tcp 1040 ------- 0 4.1 7.0 516 11255
r 4.415086 0 7 tcp 1040 ------- 0 4.1 7.0 517 11272
r 4.415918 0 7 tcp 1040 ------- 0 4.1 7.0 518 11273
r 4.41675 0 7 tcp 1040 ------- 0 4.1 7.0 519 11274
r 4.417582 0 7 tcp 1040 ------- 0 4.1 7.0 520 11275
r 4.418414 0 7 tcp 1040 ------- 0 4.1 7.0 521 11276
r 4.419246 0 7 tcp 1040 ------- 0 4.1 7.0 522 11277
r 4.420078 0 7 tcp 1040 ------- 0 4.1 7.0 523 11278
r 4.45835 0 7 tcp 1040 ------- 0 4.1 7.0 524 11403
r 4.459182 0 7 tcp 1040 ------- 0 4.1 7.0 525 11405
r 4.460014 0 7 tcp 1040 ------- 0 4.1 7.0 526 11407
r 4.460846 0 7 tcp 1040 ------- 0 4.1 7.0 527 11409
r 4.461678 0 7 tcp 1040 ------- 0 4.1 7.0 528 11410
r 4.46251 0 7 tcp 1040 ------- 0 4.1 7.0 529 11412
r 4.463342 0 7 tcp 1040 ------- 0 4.1 7.0 530 11414
r 4.464174 0 7 tcp 1040 ------- 0 4.1 7.0 531 11416
r 4.465006 0 7 tcp 1040 ------- 0 4.1 7.0 532 11418
r 4.465838 0 7 tcp 1040 ------- 0 4.1 7.0 533 11420
r 4.46667 0 7 tcp 1040 ------- 0 4.1 7.0 534 11422
r 4.467502 0 7 tcp 1040 ------- 0 4.1 7.0 535 11439
r 4.51659 0 7 tcp 1040 ------- 0 4.1 7.0 536 11550
r 4.517422 0 7 tcp 1040 ------- 0 4.1 7.0 537 11551
r 4.518254 0 7 tcp 1040 ------- 0 4.1 7.0 538 11553
r 4.519086 0 7 tcp 1040 ------- 0 4.1 7.0 539 11555
r 4.519918 0 7 tcp 1040 ------- 0 4.1 7.0 540 11557
r 4.52075 0 7 tcp 1040 ------- 0 4.1 7.0 541 11558
r 4.521582 0 7 tcp 1040 ------- 0 4.1 7.0 542 11580
r 4.522414 0 7 tcp 1040 ------- 0 4.1 7.0 543 11582
r 4.523246 0 7 tcp 1040 ------- 0 4.1 7.0 544 11584
r 4.524078 0 7 tcp 1040 ------- 0 4.1 7.0 545 11586
r 4.52491 0 7 tcp 1040 ------- 0 4.1 7.0 546 11588
r 4.525742 0 7 tcp 1040 ------- 0 4.1 7.0 547 11590
r 4.526574 0 7 tcp 1040 ------- 0 4.1 7.0 548 11592
r 4.582318 0 7 tcp 1040 ------- 0 4.1 7.0 549 11763
r 4.58315 0 7 tcp 1040 ------- 0 4.1 7.0 551 11767
r 4.583982 0 7 tcp 1040 ------- 0 4.1 7.0 552 11769
r 4.584814 0 7 tcp 1040 ------- 0 4.1 7.0 553 11771
r 4.585646 0 7 tcp 1040 ------- 0 4.1 7.0 554 11773
r 4.586478 0 7 tcp 1040 ------- 0 4.1 7.0 555 11775
r 4.58731 0 7 tcp 1040 ------- 0 4.1 7.0 557 11778
r 4.588142 0 7 tcp 1040 ------- 0 4.1 7.0 558 11780
r 4.588974 0 7 tcp 1040 ------- 0 4.1 7.0 559 11782
r 4.589806 0 7 tcp 1040 ------- 0 4.1 7.0 560 11784
r 4.590638 0 7 tcp 1040 ------- 0 4.1 7.0 561 11786
r 4.59147 0 7 tcp 1040 ------- 0 4.1 7.0 562 11788
r 4.647214 0 7 tcp 1040 ------- 0 4.1 7.0 563 11978
r 4.648046 0 7 tcp 1040 ------- 0 4.1 7.0 564 11979
r 4.648878 0 7 tcp 1040 ------- 0 4.1 7.0 565 11980
r 4.64971 0 7 tcp 1040 ---A--- 0 4.1 7.0 550 11981
r 4.704622 0 7 tcp 1040 ------- 0 4.1 7.0 556 12175
r 4.705454 0 7 tcp 1040 ------- 0 4.1 7.0 557 12176
r 4.757038 0 7 tcp 1040 ------- 0 4.1 7.0 566 12344
r 4.75787 0 7 tcp 1040 ------- 0 4.1 7.0 567 12345
r 4.758702 0 7 tcp 1040 ------- 0 4.1 7.0 568 12346
r 4.759534 0 7 tcp 1040 ------- 0 4.1 7.0 569 12348
r 4.818606 0 7 tcp 1040 ------- 0 4.1 7.0 570 12521
r 4.819438 0 7 tcp 1040 ------- 0 4.1 7.0 571 12523
r 4.82027 0 7 tcp 1040 ------- 0 4.1 7.0 572 12524
r 4.821102 0 7 tcp 1040 ------- 0 4.1 7.0 573 12526
r 4.821934 0 7 tcp 1040 ------- 0 4.1 7.0 574 12527
r 4.822766 0 7 tcp 1040 ------- 0 4.1 7.0 575 12529
r 4.823598 0 7 tcp 1040 ------- 0 4.1 7.0 576 12530
r 4.883502 0 7 tcp 1040 ------- 0 4.1 7.0 577 12723
r 4.884334 0 7 tcp 1040 ------- 0 4.1 7.0 578 12725
r 4.885166 0 7 tcp 1040 ------- 0 4.1 7.0 579 12727