r 0.111206 0 10 tcp 40 ------- 0 4.4 10.0 0 4
r 0.141863 0 10 tcp 1040 ------- 0 4.4 10.0 1 18
r 0.142695 0 10 tcp 1040 ------- 0 4.4 10.0 2 19
r 0.172648 0 10 tcp 1040 ------- 0 4.4 10.0 3 46
r 0.17348 0 10 tcp 1040 ------- 0 4.4 10.0 4 47
r 0.174312 0 10 tcp 1040 ------- 0 4.4 10.0 5 48
r 0.175144 0 10 tcp 1040 ------- 0 4.4 10.0 6 49
r 0.210089 0 10 tcp 1040 ------- 0 4.4 10.0 7 103
r 0.210921 0 10 tcp 1040 ------- 0 4.4 10.0 8 104
r 0.211753 0 10 tcp 1040 ------- 0 4.4 10.0 9 106
r 0.212585 0 10 tcp 1040 ------- 0 4.4 10.0 10 107
r 0.213417 0 10 tcp 1040 ------- 0 4.4 10.0 11 109
r 0.214249 0 10 tcp 1040 ------- 0 4.4 10.0 12 110
r 0.215081 0 10 tcp 1040 ------- 0 4.4 10.0 13 112
r 0.215913 0 10 tcp 1040 ------- 0 4.4 10.0 14 113
r 0.269993 0 10 tcp 1040 ------- 0 4.4 10.0 15 220
r 0.270825 0 10 tcp 1040 ------- 0 4.4 10.0 16 221
r 0.271657 0 10 tcp 1040 ------- 0 4.4 10.0 17 223
r 0.272489 0 10 tcp 1040 ------- 0 4.4 10.0 18 224
r 0.273321 0 10 tcp 1040 ------- 0 4.4 10.0 19 226
r 0.274153 0 10 tcp 1040 ------- 0 4.4 10.0 20 227
r 0.274985 0 10 tcp 1040 ------- 0 4.4 10.0 21 229
r 0.275817 0 10 tcp 1040 ------- 0 4.4 10.0 22 230
r 0.276649 0 10 tcp 1040 ------- 0 4.4 10.0 23 232
r 0.277481 0 10 tcp 1040 ------- 0 4.4 10.0 24 233
r 0.278313 0 10 tcp 1040 ------- 0 4.4 10.0 25 235
r 0.279145 0 10 tcp 1040 ------- 0 4.4 10.0 26 236
r 0.279977 0 10 tcp 1040 ------- 0 4.4 10.0 27 238
r 0.280809 0 10 tcp 1040 ------- 0 4.4 10.0 29 241
r 0.334889 0 10 tcp 1040 ------- 0 4.4 10.0 31 388
r 0.335721 0 10 tcp 1040 ------- 0 4.4 10.0 33 391
r 0.336553 0 10 tcp 1040 ------- 0 4.4 10.0 35 394
r 0.337385 0 10 tcp 1040 ------- 0 4.4 10.0 37 397
r 0.338217 0 10 tcp 1040 ------- 0 4.4 10.0 39 400
r 0.339049 0 10 tcp 1040 ------- 0 4.4 10.0 40 402
r 0.339881 0 10 tcp 1040 ------- 0 4.4 10.0 41 404
r 0.340713 0 10 tcp 1040 ------- 0 4.4 10.0 42 406
r 0.341545 0 10 tcp 1040 ------- 0 4.4 10.0 43 408
r 0.342377 0 10 tcp 1040 ------- 0 4.4 10.0 44 410
r 0.343209 0 10 tcp 1040 ------- 0 4.4 10.0 45 412
r 0.344041 0 10 tcp 1040 ------- 0 4.4 10.0 46 414
r 0.344873 0 10 tcp 1040 ------- 0 4.4 10.0 47 416
r 0.35985 0 10 tcp 1040 ---A--- 0 4.4 10.0 28 492
r 0.383978 0 10 tcp 1040 ------- 0 4.4 10.0 30 509
r 0.38481 0 10 tcp 1040 ------- 0 4.4 10.0 31 510
r 0.408107 0 10 tcp 1040 ------- 0 4.4 10.0 32 537
r 0.408939 0 10 tcp 1040 ------- 0 4.4 10.0 33 538
r 0.409771 0 10 tcp 1040 ------- 0 4.4 10.0 34 539
r 0.410603 0 10 tcp 1040 ------- 0 4.4 10.0 35 541
r 0.448875 0 10 tcp 1040 ------- 0 4.4 10.0 36 597
r 0.449707 0 10 tcp 1040 ------- 0 4.4 10.0 37 598
r 0.450539 0 10 tcp 1040 ------- 0 4.4 10.0 38 600
r 0.451371 0 10 tcp 1040 ------- 0 4.4 10.0 39 602
r 0.452203 0 10 tcp 1040 ------- 0 4.4 10.0 40 603
r 0.453035 0 10 tcp 1040 ------- 0 4.4 10.0 41 605
r 0.487147 0 10 tcp 1040 ------- 0 4.4 10.0 42 692
r 0.487979 0 10 tcp 1040 ------- 0 4.4 10.0 43 693
r 0.488811 0 10 tcp 1040 ------- 0 4.4 10.0 44 695
r 0.489643 0 10 tcp 1040 ------- 0 4.4 10.0 48 697
r 0.490475 0 10 tcp 1040 ------- 0 4.4 10.0 49 698
r 0.491307 0 10 tcp 1040 ------- 0 4.4 10.0 50 699
r 0.492139 0 10 tcp 1040 ------- 0 4.4 10.0 51 700
r 0.492971 0 10 tcp 1040 ------- 0 4.4 10.0 52 701
r 0.493803 0 10 tcp 1040 ------- 0 4.4 10.0 53 702
r 0.494635 0 10 tcp 1040 ------- 0 4.4 10.0 54 703
r 0.495467 0 10 tcp 1040 ------- 0 4.4 10.0 55 705
r 0.496299 0 10 tcp 1040 ------- 0 4.4 10.0 56 707
r 0.533739 0 10 tcp 1040 ------- 0 4.4 10.0 57 798
r 0.534571 0 10 tcp 1040 ------- 0 4.4 10.0 58 799
r 0.535403 0 10 tcp 1040 ------- 0 4.4 10.0 59 801
r 0.536235 0 10 tcp 1040 ------- 0 4.4 10.0 60 802
r 0.537067 0 10 tcp 1040 ------- 0 4.4 10.0 61 804
r 0.537899 0 10 tcp 1040 ------- 0 4.4 10.0 62 806
r 0.538731 0 10 tcp 1040 ------- 0 4.4 10.0 63 808
r 0.539563 0 10 tcp 1040 ------- 0 4.4 10.0 64 810
r 0.540395 0 10 tcp 1040 ------- 0 4.4 10.0 65 812
r 0.541227 0 10 tcp 1040 ------- 0 4.4 10.0 66 814
r 0.581995 0 10 tcp 1040 ------- 0 4.4 10.0 67 908
r 0.582827 0 10 tcp 1040 ------- 0 4.4 10.0 68 910
r 0.583659 0 10 tcp 1040 ------- 0 4.4 10.0 69 912
r 0.584491 0 10 tcp 1040 ------- 0 4.4 10.0 70 914
r 0.585323 0 10 tcp 1040 ------- 0 4.4 10.0 71 916
r 0.586155 0 10 tcp 1040 ------- 0 4.4 10.0 72 917
r 0.586987 0 10 tcp 1040 ------- 0 4.4 10.0 73 919
r 0.587819 0 10 tcp 1040 ------- 0 4.4 10.0 74 921
r 0.588651 0 10 tcp 1040 ------- 0 4.4 10.0 75 923
r 0.589483 0 10 tcp 1040 ------- 0 4.4 10.0 76 925
r 0.590315 0 10 tcp 1040 ------- 0 4.4 10.0 77 927
r 0.631083 0 10 tcp 1040 ------- 0 4.4 10.0 78 1025
r 0.631915 0 10 tcp 1040 ------- 0 4.4 10.0 79 1027
r 0.632747 0 10 tcp 1040 ------- 0 4.4 10.0 80 1029
r 0.633579 0 10 tcp 1040 ------- 0 4.4 10.0 81 1031
r 0.634411 0 10 tcp 1040 ------- 0 4.4 10.0 82 1033
r 0.635243 0 10 tcp 1040 ------- 0 4.4 10.0 83 1035
r 0.636075 0 10 tcp 1040 ------- 0 4.4 10.0 84 1036
r 0.636907 0 10 tcp 1040 ------- 0 4.4 10.0 85 1038
r 0.637739 0 10 tcp 1040 ------- 0 4.4 10.0 86 1040
r 0.638571 0 10 tcp 1040 ------- 0 4.4 10.0 87 1042
r 0.639403 0 10 tcp 1040 ------- 0 4.4 10.0 88 1044
r 0.640235 0 10 tcp 1040 ------- 0 4.4 10.0 89 1046
r 0.684331 0 10 tcp 1040 ------- 0 4.4 10.0 90 1148
r 0.685163 0 10 tcp 1040 ------- 0 4.4 10.0 91 1150
r 0.685995 0 10 tcp 1040 ------- 0 4.4 10.0 92 1152
r 0.686827 0 10 tcp 1040 ------- 0 4.4 10.0 93 1154
r 0.687659 0 10 tcp 1040 ------- 0 4.4 10.0 94 1156
r 0.688491 0 10 tcp 1040 ------- 0 4.4 10.0 95 1158
r 0.689323 0 10 tcp 1040 ------- 0 4.4 10.0 96 1160
r 0.690155 0 10 tcp 1040 ------- 0 4.4 10.0 97 1162
r 0.690987 0 10 tcp 1040 ------- 0 4.4 10.0 98 1163
r 0.691819 0 10 tcp 1040 ------- 0 4.4 10.0 99 1165
r 0.692651 0 10 tcp 1040 ------- 0 4.4 10.0 100 1167
r 0.693483 0 10 tcp 1040 ------- 0 4.4 10.0 101 1169
r 0.694315 0 10 tcp 1040 ------- 0 4.4 10.0 102 1171
r 0.741739 0 10 tcp 1040 ------- 0 4.4 10.0 103 1281
r 0.742571 0 10 tcp 1040 ------- 0 4.4 10.0 104 1283
r 0.743403 0 10 tcp 1040 ------- 0 4.4 10.0 105 1285
r 0.744235 0 10 tcp 1040 ------- 0 4.4 10.0 106 1287
r 0.745067 0 10 tcp 1040 ------- 0 4.4 10.0 107 1289
r 0.745899 0 10 tcp 1040 ------- 0 4.4 10.0 108 1291
r 0.746731 0 10 tcp 1040 ------- 0 4.4 10.0 109 1293
r 0.747563 0 10 tcp 1040 ------- 0 4.4 10.0 110 1295
r 0.748395 0 10 tcp 1040 ------- 0 4.4 10.0 111 1297
r 0.749227 0 10 tcp 1040 ------- 0 4.4 10.0 112 1298
r 0.750059 0 10 tcp 1040 ------- 0 4.4 10.0 113 1300
r 0.750891 0 10 tcp 1040 ------- 0 4.4 10.0 114 1302
r 0.751723 0 10 tcp 1040 ------- 0 4.4 10.0 115 1304
r 0.752555 0 10 tcp 1040 ------- 0 4.4 10.0 116 1306
r 0.803307 0 10 tcp 1040 ------- 0 4.4 10.0 117 1424
r 0.804139 0 10 tcp 1040 ------- 0 4.4 10.0 118 1426
r 0.804971 0 10 tcp 1040 ------- 0 4.4 10.0 119 1428
r 0.805803 0 10 tcp 1040 ------- 0 4.4 10.0 120 1430
r 0.806635 0 10 tcp 1040 ------- 0 4.4 10.0 121 1432
r 0.807467 0 10 tcp 1040 ------- 0 4.4 10.0 122 1434
r 0.808299 0 10 tcp 1040 ------- 0 4.4 10.0 123 1436
r 0.809131 0 10 tcp 1040 ------- 0 4.4 10.0 124 1438
r 0.809963 0 10 tcp 1040 ------- 0 4.4 10.0 125 1440
r 0.810795 0 10 tcp 1040 ------- 0 4.4 10.0 126 1442
r 0.811627 0 10 tcp 1040 ------- 0 4.4 10.0 127 1444
r 0.812459 0 10 tcp 1040 ------- 0 4.4 10.0 128 1445
r 0.813291 0 10 tcp 1040 ------- 0 4.4 10.0 129 1447
r 0.814123 0 10 tcp 1040 ------- 0 4.4 10.0 130 1449
r 0.814955 0 10 tcp 1040 ------- 0 4.4 10.0 131 1451
r 0.868203 0 10 tcp 1040 ------- 0 4.4 10.0 132 1577
r 0.869035 0 10 tcp 1040 ------- 0 4.4 10.0 133 1579
r 0.869867 0 10 tcp 1040 ------- 0 4.4 10.0 134 1581
r 0.870699 0 10 tcp 1040 ------- 0 4.4 10.0 135 1583
r 0.871531 0 10 tcp 1040 ------- 0 4.4 10.0 136 1585
r 0.872363 0 10 tcp 1040 ------- 0 4.4 10.0 137 1587
r 0.873195 0 10 tcp 1040 ------- 0 4.4 10.0 138 1589
r 0.874027 0 10 tcp 1040 ------- 0 4.4 10.0 139 1591
r 0.874859 0 10 tcp 1040 ------- 0 4.4 10.0 140 1593
r 0.875691 0 10 tcp 1040 ------- 0 4.4 10.0 141 1595
r 0.876523 0 10 tcp 1040 ------- 0 4.4 10.0 142 1597
r 0.877355 0 10 tcp 1040 ------- 0 4.4 10.0 143 1599
r 0.878187 0 10 tcp 1040 ------- 0 4.4 10.0 145 1602
r 0.879019 0 10 tcp 1040 ------- 0 4.4 10.0 146 1604
r 0.879851 0 10 tcp 1040 ------- 0 4.4 10.0 147 1606
r 0.927275 0 10 tcp 1040 ------- 0 4.4 10.0 148 1730
r 0.928107 0 10 tcp 1040 ------- 0 4.4 10.0 149 1732
r 0.928939 0 10 tcp 1040 ------- 0 4.4 10.0 150 1734
r 0.929771 0 10 tcp 1040 ------- 0 4.4 10.0 151 1736
r 0.930603 0 10 tcp 1040 ------- 0 4.4 10.0 152 1738
r 0.931435 0 10 tcp 1040 ------- 0 4.4 10.0 153 1740
r 0.932267 0 10 tcp 1040 ------- 0 4.4 10.0 154 1742
r 0.933099 0 10 tcp 1040 ------- 0 4.4 10.0 155 1744
r 0.933931 0 10 tcp 1040 ------- 0 4.4 10.0 156 1746
r 0.934763 0 10 tcp 1040 ------- 0 4.4 10.0 157 1748
r 0.935595 0 10 tcp 1040 ------- 0 4.4 10.0 158 1750
r 0.936427 0 10 tcp 1040 ------- 0 4.4 10.0 159 1752
r 0.937259 0 10 tcp 1040 ------- 0 4.4 10.0 160 1754
r 0.938091 0 10 tcp 1040 ------- 0 4.4 10.0 161 1756
r 0.938923 0 10 tcp 1040 ---A--- 0 4.4 10.0 144 1758
r 0.966379 0 10 tcp 1040 ------- 0 4.4 10.0 162 1862
r 0.967211 0 10 tcp 1040 ------- 0 4.4 10.0 163 1863
r 0.993004 0 10 tcp 1040 ------- 0 4.4 10.0 164 1897
r 0.993836 0 10 tcp 1040 ------- 0 4.4 10.0 165 1898
r 0.994668 0 10 tcp 1040 ------- 0 4.4 10.0 166 1899
r 0.9955 0 10 tcp 1040 ------- 0 4.4 10.0 167 1900
r 1.022125 0 10 tcp 1040 ------- 0 4.4 10.0 168 1938
r 1.022957 0 10 tcp 1040 ------- 0 4.4 10.0 169 1939
r 1.023789 0 10 tcp 1040 ------- 0 4.4 10.0 170 1941
r 1.024621 0 10 tcp 1040 ------- 0 4.4 10.0 171 1942
r 1.025453 0 10 tcp 1040 ------- 0 4.4 10.0 172 1944
r 1.026285 0 10 tcp 1040 ------- 0 4.4 10.0 173 1945
r 1.027117 0 10 tcp 1040 ------- 0 4.4 10.0 174 1947
r 1.027949 0 10 tcp 1040 ------- 0 4.4 10.0 175 1948
r 1.055405 0 10 tcp 1040 ------- 0 4.4 10.0 176 2007
r 1.056237 0 10 tcp 1040 ------- 0 4.4 10.0 177 2009
r 1.057069 0 10 tcp 1040 ------- 0 4.4 10.0 178 2011
r 1.057901 0 10 tcp 1040 ------- 0 4.4 10.0 179 2013
r 1.058733 0 10 tcp 1040 ------- 0 4.4 10.0 180 2015
r 1.059565 0 10 tcp 1040 ------- 0 4.4 10.0 181 2017
r 1.060397 0 10 tcp 1040 ------- 0 4.4 10.0 182 2019
r 1.061229 0 10 tcp 1040 ------- 0 4.4 10.0 183 2021
r 1.089517 0 10 tcp 1040 ------- 0 4.4 10.0 184 2088
r 1.090349 0 10 tcp 1040 ------- 0 4.4 10.0 185 2089
r 1.091181 0 10 tcp 1040 ------- 0 4.4 10.0 186 2091
r 1.092013 0 10 tcp 1040 ------- 0 4.4 10.0 187 2093
r 1.092845 0 10 tcp 1040 ------- 0 4.4 10.0 188 2095
r 1.093677 0 10 tcp 1040 ------- 0 4.4 10.0 189 2097
r 1.094509 0 10 tcp 1040 ------- 0 4.4 10.0 190 2099
r 1.095341 0 10 tcp 1040 ------- 0 4.4 10.0 191 2101
r 1.096173 0 10 tcp 1040 ------- 0 4.4 10.0 192 2103
r 1.127789 0 10 tcp 1040 ------- 0 4.4 10.0 193 2175
r 1.128621 0 10 tcp 1040 ------- 0 4.4 10.0 194 2177
r 1.129453 0 10 tcp 1040 ------- 0 4.4 10.0 195 2178
r 1.130285 0 10 tcp 1040 ------- 0 4.4 10.0 196 2180
r 1.131117 0 10 tcp 1040 ------- 0 4.4 10.0 197 2182
r 1.131949 0 10 tcp 1040 ------- 0 4.4 10.0 198 2184
r 1.132781 0 10 tcp 1040 ------- 0 4.4 10.0 199 2186
r 1.133613 0 10 tcp 1040 ------- 0 4.4 10.0 200 2188
r 1.134445 0 10 tcp 1040 ------- 0 4.4 10.0 201 2190
r 1.135277 0 10 tcp 1040 ------- 0 4.4 10.0 202 2192
r 1.170221 0 10 tcp 1040 ------- 0 4.4 10.0 203 2272
r 1.171053 0 10 tcp 1040 ------- 0 4.4 10.0 204 2274
r 1.171885 0 10 tcp 1040 ------- 0 4.4 10.0 205 2276
r 1.172717 0 10 tcp 1040 ------- 0 4.4 10.0 206 2278
r 1.173549 0 10 tcp 1040 ------- 0 4.4 10.0 207 2279
r 1.174381 0 10 tcp 1040 ------- 0 4.4 10.0 208 2281
r 1.175213 0 10 tcp 1040 ------- 0 4.4 10.0 209 2283
r 1.176045 0 10 tcp 1040 ------- 0 4.4 10.0 210 2285
r 1.176877 0 10 tcp 1040 ------- 0 4.4 10.0 211 2287
r 1.177709 0 10 tcp 1040 ------- 0 4.4 10.0 212 2289
r 1.178541 0 10 tcp 1040 ------- 0 4.4 10.0 213 2291
r 1.216813 0 10 tcp 1040 ------- 0 4.4 10.0 214 2379
r 1.217645 0 10 tcp 1040 ------- 0 4.4 10.0 215 2381
r 1.218477 0 10 tcp 1040 ------- 0 4.4 10.0 216 2383
r 1.219309 0 10 tcp 1040 ------- 0 4.4 10.0 217 2385
r 1.220141 0 10 tcp 1040 ------- 0 4.4 10.0 218 2387
r 1.220973 0 10 tcp 1040 ------- 0 4.4 10.0 219 2388
r 1.221805 0 10 tcp 1040 ------- 0 4.4 10.0 220 2390
r 1.222637 0 10 tcp 1040 ------- 0 4.4 10.0 221 2392
r 1.223469 0 10 tcp 1040 ------- 0 4.4 10.0 222 2394
r 1.224301 0 10 tcp 1040 ------- 0 4.4 10.0 223 2396
r 1.225133 0 10 tcp 1040 ------- 0 4.4 10.0 224 2398
r 1.225965 0 10 tcp 1040 ------- 0 4.4 10.0 225 2400
r 1.267565 0 10 tcp 1040 ------- 0 4.4 10.0 226 2496
r 1.268397 0 10 tcp 1040 ------- 0 4.4 10.0 227 2498
r 1.269229 0 10 tcp 1040 ------- 0 4.4 10.0 228 2500
r 1.270061 0 10 tcp 1040 ------- 0 4.4 10.0 229 2502
r 1.270893 0 10 tcp 1040 ------- 0 4.4 10.0 230 2504
r 1.271725 0 10 tcp 1040 ------- 0 4.4 10.0 231 2506
r 1.272557 0 10 tcp 1040 ------- 0 4.4 10.0 232 2508
r 1.273389 0 10 tcp 1040 ------- 0 4.4 10.0 233 2509
r 1.274221 0 10 tcp 1040 ------- 0 4.4 10.0 234 2511
r 1.275053 0 10 tcp 1040 ------- 0 4.4 10.0 235 2513
r 1.275885 0 10 tcp 1040 ------- 0 4.4 10.0 236 2515
r 1.276717 0 10 tcp 1040 ------- 0 4.4 10.0 237 2517
r 1.277549 0 10 tcp 1040 ------- 0 4.4 10.0 238 2519
r 1.322477 0 10 tcp 1040 ------- 0 4.4 10.0 239 2623
r 1.323309 0 10 tcp 1040 ------- 0 4.4 10.0 240 2625
r 1.324141 0 10 tcp 1040 ------- 0 4.4 10.0 241 2627
r 1.324973 0 10 tcp 1040 ------- 0 4.4 10.0 242 2629
r 1.325805 0 10 tcp 1040 ------- 0 4.4 10.0 243 2631
r 1.326637 0 10 tcp 1040 ------- 0 4.4 10.0 244 2633
r 1.327469 0 10 tcp 1040 ------- 0 4.4 10.0 245 2635
r 1.328301 0 10 tcp 1040 ------- 0 4.4 10.0 246 2637
r 1.329133 0 10 tcp 1040 ------- 0 4.4 10.0 247 2638
r 1.329965 0 10 tcp 1040 ------- 0 4.4 10.0 248 2640
r 1.330797 0 10 tcp 1040 ------- 0 4.4 10.0 249 2642
r 1.331629 0 10 tcp 1040 ------- 0 4.4 10.0 250 2644
r 1.332461 0 10 tcp 1040 ------- 0 4.4 10.0 251 2646
r 1.333293 0 10 tcp 1040 ------- 0 4.4 10.0 252 2648
r 1.381549 0 10 tcp 1040 ------- 0 4.4 10.0 253 2760
r 1.382381 0 10 tcp 1040 ------- 0 4.4 10.0 254 2762
r 1.383213 0 10 tcp 1040 ------- 0 4.4 10.0 255 2764
r 1.384045 0 10 tcp 1040 ------- 0 4.4 10.0 256 2766
r 1.384877 0 10 tcp 1040 ------- 0 4.4 10.0 257 2768
r 1.385709 0 10 tcp 1040 ------- 0 4.4 10.0 258 2770
r 1.386541 0 10 tcp 1040 ------- 0 4.4 10.0 259 2772
r 1.387373 0 10 tcp 1040 ------- 0 4.4 10.0 260 2774
r 1.388205 0 10 tcp 1040 ------- 0 4.4 10.0 261 2776
r 1.389037 0 10 tcp 1040 ------- 0 4.4 10.0 262 2778
r 1.389869 0 10 tcp 1040 ------- 0 4.4 10.0 263 2779
r 1.390701 0 10 tcp 1040 ------- 0 4.4 10.0 264 2781
r 1.391533 0 10 tcp 1040 ------- 0 4.4 10.0 265 2783
r 1.392365 0 10 tcp 1040 ------- 0 4.4 10.0 266 2785
r 1.393197 0 10 tcp 1040 ------- 0 4.4 10.0 267 2787
r 1.444781 0 10 tcp 1040 ------- 0 4.4 10.0 268 2907
r 1.445613 0 10 tcp 1040 ------- 0 4.4 10.0 269 2909
r 1.446445 0 10 tcp 1040 ------- 0 4.4 10.0 270 2911
r 1.447277 0 10 tcp 1040 ------- 0 4.4 10.0 271 2913
r 1.448109 0 10 tcp 1040 ------- 0 4.4 10.0 272 2915
r 1.448941 0 10 tcp 1040 ------- 0 4.4 10.0 273 2917
r 1.449773 0 10 tcp 1040 ------- 0 4.4 10.0 274 2919
r 1.450605 0 10 tcp 1040 ------- 0 4.4 10.0 275 2921
r 1.451437 0 10 tcp 1040 ------- 0 4.4 10.0 276 2923
r 1.452269 0 10 tcp 1040 ------- 0 4.4 10.0 277 2925
r 1.453101 0 10 tcp 1040 ------- 0 4.4 10.0 278 2927
r 1.453933 0 10 tcp 1040 ------- 0 4.4 10.0 279 2928
r 1.454765 0 10 tcp 1040 ------- 0 4.4 10.0 280 2930
r 1.455597 0 10 tcp 1040 ------- 0 4.4 10.0 281 2932
r 1.456429 0 10 tcp 1040 ------- 0 4.4 10.0 282 2934
r 1.457261 0 10 tcp 1040 ------- 0 4.4 10.0 283 2936
r 1.509677 0 10 tcp 1040 ------- 0 4.4 10.0 284 3064
r 1.510509 0 10 tcp 1040 ------- 0 4.4 10.0 285 3066
r 1.511341 0 10 tcp 1040 ------- 0 4.4 10.0 286 3068
r 1.512173 0 10 tcp 1040 ------- 0 4.4 10.0 287 3070
r 1.513005 0 10 tcp 1040 ------- 0 4.4 10.0 288 3072
r 1.513837 0 10 tcp 1040 ------- 0 4.4 10.0 289 3074
r 1.514669 0 10 tcp 1040 ------- 0 4.4 10.0 290 3076
r 1.515501 0 10 tcp 1040 ------- 0 4.4 10.0 291 3078
r 1.516333 0 10 tcp 1040 ------- 0 4.4 10.0 292 3080
r 1.517165 0 10 tcp 1040 ------- 0 4.4 10.0 293 3082
r 1.517997 0 10 tcp 1040 ------- 0 4.4 10.0 294 3084
r 1.518829 0 10 tcp 1040 ------- 0 4.4 10.0 295 3086
r 1.519661 0 10 tcp 1040 ------- 0 4.4 10.0 296 3088
r 1.520493 0 10 tcp 1040 ------- 0 4.4 10.0 298 3091
r 1.521325 0 10 tcp 1040 ------- 0 4.4 10.0 299 3093
r 1.522157 0 10 tcp 1040 ------- 0 4.4 10.0 300 3095
r 1.572909 0 10 tcp 1040 ------- 0 4.4 10.0 301 3220
r 1.573741 0 10 tcp 1040 ------- 0 4.4 10.0 302 3222
r 1.574573 0 10 tcp 1040 ------- 0 4.4 10.0 303 3224
r 1.575405 0 10 tcp 1040 ------- 0 4.4 10.0 304 3226
r 1.576237 0 10 tcp 1040 ------- 0 4.4 10.0 305 3228
r 1.577069 0 10 tcp 1040 ------- 0 4.4 10.0 306 3230
r 1.577901 0 10 tcp 1040 ------- 0 4.4 10.0 307 3232
r 1.578733 0 10 tcp 1040 ------- 0 4.4 10.0 308 3234
r 1.579565 0 10 tcp 1040 ------- 0 4.4 10.0 309 3236
r 1.580397 0 10 tcp 1040 ------- 0 4.4 10.0 310 3238
r 1.581229 0 10 tcp 1040 ------- 0 4.4 10.0 311 3240
r 1.582061 0 10 tcp 1040 ------- 0 4.4 10.0 312 3242
r 1.582893 0 10 tcp 1040 ------- 0 4.4 10.0 313 3244
r 1.583725 0 10 tcp 1040 ------- 0 4.4 10.0 314 3246
r 1.584557 0 10 tcp 1040 ------- 0 4.4 10.0 315 3248
r 1.585389 0 10 tcp 1040 ---A--- 0 4.4 10.0 297 3250
r 1.609518 0 10 tcp 1040 ------- 0 4.4 10.0 316 3349
r 1.61035 0 10 tcp 1040 ------- 0 4.4 10.0 317 3350
r 1.634478 0 10 tcp 1040 ------- 0 4.4 10.0 318 3376
r 1.63531 0 10 tcp 1040 ------- 0 4.4 10.0 319 3377
r 1.636142 0 10 tcp 1040 ------- 0 4.4 10.0 320 3378
r 1.636974 0 10 tcp 1040 ------- 0 4.4 10.0 321 3379
r 1.670254 0 10 tcp 1040 ------- 0 4.4 10.0 322 3426
r 1.671086 0 10 tcp 1040 ------- 0 4.4 10.0 323 3427
r 1.671918 0 10 tcp 1040 ------- 0 4.4 10.0 324 3428
r 1.67275 0 10 tcp 1040 ------- 0 4.4 10.0 325 3429
r 1.673582 0 10 tcp 1040 ------- 0 4.4 10.0 326 3431
r 1.674414 0 10 tcp 1040 ------- 0 4.4 10.0 327 3432
r 1.675246 0 10 tcp 1040 ------- 0 4.4 10.0 328 3434
r 1.676078 0 10 tcp 1040 ------- 0 4.4 10.0 329 3435
r 1.703534 0 10 tcp 1040 ------- 0 4.4 10.0 330 3508
r 1.704366 0 10 tcp 1040 ------- 0 4.4 10.0 331 3510
r 1.705198 0 10 tcp 1040 ------- 0 4.4 10.0 332 3512
r 1.70603 0 10 tcp 1040 ------- 0 4.4 10.0 333 3514
r 1.706862 0 10 tcp 1040 ------- 0 4.4 10.0 334 3516
r 1.707694 0 10 tcp 1040 ------- 0 4.4 10.0 335 3518
r 1.708526 0 10 tcp 1040 ------- 0 4.4 10.0 336 3520
r 1.709358 0 10 tcp 1040 ------- 0 4.4 10.0 337 3522
r 1.73931 0 10 tcp 1040 ------- 0 4.4 10.0 338 3591
r 1.740142 0 10 tcp 1040 ------- 0 4.4 10.0 339 3592
r 1.740974 0 10 tcp 1040 ------- 0 4.4 10.0 340 3594
r 1.741806 0 10 tcp 1040 ------- 0 4.4 10.0 341 3596
r 1.742638 0 10 tcp 1040 ------- 0 4.4 10.0 342 3598
r 1.74347 0 10 tcp 1040 ------- 0 4.4 10.0 343 3600
r 1.744302 0 10 tcp 1040 ------- 0 4.4 10.0 344 3602
r 1.745134 0 10 tcp 1040 ------- 0 4.4 10.0 345 3604
r 1.745966 0 10 tcp 1040 ------- 0 4.4 10.0 346 3606
r 1.779246 0 10 tcp 1040 ------- 0 4.4 10.0 347 3682
r 1.780078 0 10 tcp 1040 ------- 0 4.4 10.0 348 3684
r 1.78091 0 10 tcp 1040 ------- 0 4.4 10.0 349 3685
r 1.781742 0 10 tcp 1040 ------- 0 4.4 10.0 350 3687
r 1.782574 0 10 tcp 1040 ------- 0 4.4 10.0 351 3689
r 1.783406 0 10 tcp 1040 ------- 0 4.4 10.0 352 3691
r 1.784238 0 10 tcp 1040 ------- 0 4.4 10.0 353 3693
r 1.78507 0 10 tcp 1040 ------- 0 4.4 10.0 354 3695
r 1.785902 0 10 tcp 1040 ------- 0 4.4 10.0 355 3697
r 1.786734 0 10 tcp 1040 ------- 0 4.4 10.0 356 3699
r 1.823342 0 10 tcp 1040 ------- 0 4.4 10.0 357 3783
r 1.824174 0 10 tcp 1040 ------- 0 4.4 10.0 358 3785
r 1.825006 0 10 tcp 1040 ------- 0 4.4 10.0 359 3787
r 1.825838 0 10 tcp 1040 ------- 0 4.4 10.0 360 3789
r 1.82667 0 10 tcp 1040 ------- 0 4.4 10.0 361 3790
r 1.827502 0 10 tcp 1040 ------- 0 4.4 10.0 362 3792
r 1.828334 0 10 tcp 1040 ------- 0 4.4 10.0 363 3794
r 1.829166 0 10 tcp 1040 ------- 0 4.4 10.0 364 3796
r 1.829998 0 10 tcp 1040 ------- 0 4.4 10.0 365 3798
r 1.83083 0 10 tcp 1040 ------- 0 4.4 10.0 366 3800
r 1.831662 0 10 tcp 1040 ------- 0 4.4 10.0 367 3802
r 1.871598 0 10 tcp 1040 ------- 0 4.4 10.0 368 3894
r 1.87243 0 10 tcp 1040 ------- 0 4.4 10.0 369 3896
r 1.873262 0 10 tcp 1040 ------- 0 4.4 10.0 370 3898
r 1.874094 0 10 tcp 1040 ------- 0 4.4 10.0 371 3900
r 1.874926 0 10 tcp 1040 ------- 0 4.4 10.0 372 3902
r 1.875758 0 10 tcp 1040 ------- 0 4.4 10.0 373 3903
r 1.87659 0 10 tcp 1040 ------- 0 4.4 10.0 374 3905
r 1.877422 0 10 tcp 1040 ------- 0 4.4 10.0 375 3907
r 1.878254 0 10 tcp 1040 ------- 0 4.4 10.0 376 3909
r 1.879086 0 10 tcp 1040 ------- 0 4.4 10.0 377 3911
r 1.879918 0 10 tcp 1040 ------- 0 4.4 10.0 378 3913
r 1.88075 0 10 tcp 1040 ------- 0 4.4 10.0 379 3915
r 1.924014 0 10 tcp 1040 ------- 0 4.4 10.0 380 4015
r 1.924846 0 10 tcp 1040 ------- 0 4.4 10.0 381 4017
r 1.925678 0 10 tcp 1040 ------- 0 4.4 10.0 382 4019
r 1.92651 0 10 tcp 1040 ------- 0 4.4 10.0 383 4021
r 1.927342 0 10 tcp 1040 ------- 0 4.4 10.0 384 4023
r 1.928174 0 10 tcp 1040 ------- 0 4.4 10.0 385 4025
r 1.929006 0 10 tcp 1040 ------- 0 4.4 10.0 386 4027
r 1.929838 0 10 tcp 1040 ------- 0 4.4 10.0 387 4028
r 1.93067 0 10 tcp 1040 ------- 0 4.4 10.0 388 4030
r 1.931502 0 10 tcp 1040 ------- 0 4.4 10.0 389 4032
r 1.932334 0 10 tcp 1040 ------- 0 4.4 10.0 390 4034
r 1.933166 0 10 tcp 1040 ------- 0 4.4 10.0 391 4036
r 1.933998 0 10 tcp 1040 ------- 0 4.4 10.0 392 4038
r 1.98059 0 10 tcp 1040 ------- 0 4.4 10.0 393 4146
r 1.981422 0 10 tcp 1040 ------- 0 4.4 10.0 394 4148
r 1.982254 0 10 tcp 1040 ------- 0 4.4 10.0 395 4150
r 1.983086 0 10 tcp 1040 ------- 0 4.4 10.0 396 4152
r 1.983918 0 10 tcp 1040 ------- 0 4.4 10.0 397 4154
r 1.98475 0 10 tcp 1040 ------- 0 4.4 10.0 398 4156
r 1.985582 0 10 tcp 1040 ------- 0 4.4 10.0 399 4158
r 1.986414 0 10 tcp 1040 ------- 0 4.4 10.0 400 4160
r 1.987246 0 10 tcp 1040 ------- 0 4.4 10.0 401 4161
r 1.988078 0 10 tcp 1040 ------- 0 4.4 10.0 402 4163
r 1.98891 0 10 tcp 1040 ------- 0 4.4 10.0 403 4165
r 1.989742 0 10 tcp 1040 ------- 0 4.4 10.0 404 4167
r 1.990574 0 10 tcp 1040 ------- 0 4.4 10.0 405 4169
r 1.991406 0 10 tcp 1040 ------- 0 4.4 10.0 406 4171
r 2.041326 0 10 tcp 1040 ------- 0 4.4 10.0 407 4287
r 2.042158 0 10 tcp 1040 ------- 0 4.4 10.0 408 4289
r 2.04299 0 10 tcp 1040 ------- 0 4.4 10.0 409 4291
r 2.043822 0 10 tcp 1040 ------- 0 4.4 10.0 410 4293
r 2.044654 0 10 tcp 1040 ------- 0 4.4 10.0 411 4295
r 2.045486 0 10 tcp 1040 ------- 0 4.4 10.0 412 4297
r 2.046318 0 10 tcp 1040 ------- 0 4.4 10.0 413 4299
r 2.04715 0 10 tcp 1040 ------- 0 4.4 10.0 414 4301
r 2.047982 0 10 tcp 1040 ------- 0 4.4 10.0 415 4303
r 2.048814 0 10 tcp 1040 ------- 0 4.4 10.0 416 4305
r 2.049646 0 10 tcp 1040 ------- 0 4.4 10.0 417 4306
r 2.050478 0 10 tcp 1040 ------- 0 4.4 10.0 418 4308
r 2.05131 0 10 tcp 1040 ------- 0 4.4 10.0 419 4310
r 2.052142 0 10 tcp 1040 ------- 0 4.4 10.0 420 4312
r 2.052974 0 10 tcp 1040 ------- 0 4.4 10.0 421 4314
r 2.106222 0 10 tcp 1040 ------- 0 4.4 10.0 422 4438
r 2.107054 0 10 tcp 1040 ------- 0 4.4 10.0 423 4440
r 2.107886 0 10 tcp 1040 ------- 0 4.4 10.0 424 4442
r 2.108718 0 10 tcp 1040 ------- 0 4.4 10.0 425 4444
r 2.10955 0 10 tcp 1040 ------- 0 4.4 10.0 426 4446
r 2.110382 0 10 tcp 1040 ------- 0 4.4 10.0 427 4448
r 2.111214 0 10 tcp 1040 ------- 0 4.4 10.0 428 4450
r 2.112046 0 10 tcp 1040 ------- 0 4.4 10.0 429 4452
r 2.112878 0 10 tcp 1040 ------- 0 4.4 10.0 430 4454
r 2.11371 0 10 tcp 1040 ------- 0 4.4 10.0 431 4456
r 2.114542 0 10 tcp 1040 ------- 0 4.4 10.0 432 4458
r 2.115374 0 10 tcp 1040 ------- 0 4.4 10.0 434 4461
r 2.116206 0 10 tcp 1040 ------- 0 4.4 10.0 435 4463
r 2.117038 0 10 tcp 1040 ------- 0 4.4 10.0 436 4465
r 2.11787 0 10 tcp 1040 ------- 0 4.4 10.0 437 4467
r 2.171118 0 10 tcp 1040 ------- 0 4.4 10.0 438 4599
r 2.17195 0 10 tcp 1040 ------- 0 4.4 10.0 439 4601
r 2.172782 0 10 tcp 1040 ------- 0 4.4 10.0 440 4603
r 2.173614 0 10 tcp 1040 ------- 0 4.4 10.0 441 4605
r 2.174446 0 10 tcp 1040 ------- 0 4.4 10.0 442 4607
r 2.175278 0 10 tcp 1040 ------- 0 4.4 10.0 443 4609
r 2.17611 0 10 tcp 1040 ------- 0 4.4 10.0 444 4611
r 2.176942 0 10 tcp 1040 ------- 0 4.4 10.0 445 4613
r 2.177774 0 10 tcp 1040 ------- 0 4.4 10.0 446 4615
r 2.178606 0 10 tcp 1040 ------- 0 4.4 10.0 447 4617
r 2.179438 0 10 tcp 1040 ------- 0 4.4 10.0 448 4619
r 2.18027 0 10 tcp 1040 ------- 0 4.4 10.0 449 4621
r 2.181102 0 10 tcp 1040 ------- 0 4.4 10.0 450 4623
r 2.181934 0 10 tcp 1040 ---A--- 0 4.4 10.0 433 4625
r 2.23435 0 10 tcp 1040 ------- 0 4.4 10.0 451 4766
r 2.235182 0 10 tcp 1040 ------- 0 4.4 10.0 452 4767
r 2.259311 0 10 tcp 1040 ------- 0 4.4 10.0 453 4833
r 2.260143 0 10 tcp 1040 ------- 0 4.4 10.0 454 4834
r 2.260975 0 10 tcp 1040 ------- 0 4.4 10.0 455 4835
r 2.261807 0 10 tcp 1040 ------- 0 4.4 10.0 456 4836
r 2.285104 0 10 tcp 1040 ------- 0 4.4 10.0 457 4869
r 2.285936 0 10 tcp 1040 ------- 0 4.4 10.0 458 4870
r 2.286768 0 10 tcp 1040 ------- 0 4.4 10.0 459 4872
r 2.2876 0 10 tcp 1040 ------- 0 4.4 10.0 460 4873
r 2.288432 0 10 tcp 1040 ------- 0 4.4 10.0 461 4875
r 2.289264 0 10 tcp 1040 ------- 0 4.4 10.0 462 4876
r 2.290096 0 10 tcp 1040 ------- 0 4.4 10.0 463 4877
r 2.290928 0 10 tcp 1040 ------- 0 4.4 10.0 464 4878
r 2.318384 0 10 tcp 1040 ------- 0 4.4 10.0 465 4929
r 2.319216 0 10 tcp 1040 ------- 0 4.4 10.0 466 4931
r 2.320048 0 10 tcp 1040 ------- 0 4.4 10.0 467 4933
r 2.32088 0 10 tcp 1040 ------- 0 4.4 10.0 468 4935
r 2.321712 0 10 tcp 1040 ------- 0 4.4 10.0 469 4937
r 2.322544 0 10 tcp 1040 ------- 0 4.4 10.0 470 4939
r 2.323376 0 10 tcp 1040 ------- 0 4.4 10.0 471 4941
r 2.324208 0 10 tcp 1040 ------- 0 4.4 10.0 472 4943
r 2.351664 0 10 tcp 1040 ------- 0 4.4 10.0 473 5009
r 2.352496 0 10 tcp 1040 ------- 0 4.4 10.0 474 5010
r 2.353328 0 10 tcp 1040 ------- 0 4.4 10.0 475 5012
r 2.35416 0 10 tcp 1040 ------- 0 4.4 10.0 476 5014
r 2.354992 0 10 tcp 1040 ------- 0 4.4 10.0 477 5016
r 2.355824 0 10 tcp 1040 ------- 0 4.4 10.0 478 5018
r 2.356656 0 10 tcp 1040 ------- 0 4.4 10.0 479 5020
r 2.357488 0 10 tcp 1040 ------- 0 4.4 10.0 480 5022
r 2.35832 0 10 tcp 1040 ------- 0 4.4 10.0 481 5024
r 2.389104 0 10 tcp 1040 ------- 0 4.4 10.0 482 5094
r 2.389936 0 10 tcp 1040 ------- 0 4.4 10.0 483 5096
r 2.390768 0 10 tcp 1040 ------- 0 4.4 10.0 484 5097
r 2.3916 0 10 tcp 1040 ------- 0 4.4 10.0 485 5099
r 2.392432 0 10 tcp 1040 ------- 0 4.4 10.0 486 5101
r 2.393264 0 10 tcp 1040 ------- 0 4.4 10.0 487 5103
r 2.394096 0 10 tcp 1040 ------- 0 4.4 10.0 488 5105
r 2.394928 0 10 tcp 1040 ------- 0 4.4 10.0 489 5107
r 2.39576 0 10 tcp 1040 ------- 0 4.4 10.0 490 5109
r 2.396592 0 10 tcp 1040 ------- 0 4.4 10.0 491 5111
r 2.430704 0 10 tcp 1040 ------- 0 4.4 10.0 492 5189
r 2.431536 0 10 tcp 1040 ------- 0 4.4 10.0 493 5191
r 2.432368 0 10 tcp 1040 ------- 0 4.4 10.0 494 5193
r 2.4332 0 10 tcp 1040 ------- 0 4.4 10.0 495 5195
r 2.434032 0 10 tcp 1040 ------- 0 4.4 10.0 496 5196
r 2.434864 0 10 tcp 1040 ------- 0 4.4 10.0 497 5198
r 2.435696 0 10 tcp 1040 ------- 0 4.4 10.0 498 5200
r 2.436528 0 10 tcp 1040 ------- 0 4.4 10.0 499 5202
r 2.43736 0 10 tcp 1040 ------- 0 4.4 10.0 500 5204
r 2.438192 0 10 tcp 1040 ------- 0 4.4 10.0 501 5206
r 2.439024 0 10 tcp 1040 ------- 0 4.4 10.0 502 5208
r 2.476464 0 10 tcp 1040 ------- 0 4.4 10.0 503 5294
r 2.477296 0 10 tcp 1040 ------- 0 4.4 10.0 504 5296
r 2.478128 0 10 tcp 1040 ------- 0 4.4 10.0 505 5298
r 2.47896 0 10 tcp 1040 ------- 0 4.4 10.0 506 5300
r 2.479792 0 10 tcp 1040 ------- 0 4.4 10.0 507 5302
r 2.480624 0 10 tcp 1040 ------- 0 4.4 10.0 508 5303
r 2.481456 0 10 tcp 1040 ------- 0 4.4 10.0 509 5305
r 2.482288 0 10 tcp 1040 ------- 0 4.4 10.0 510 5307
r 2.48312 0 10 tcp 1040 ------- 0 4.4 10.0 511 5309
r 2.483952 0 10 tcp 1040 ------- 0 4.4 10.0 512 5311
r 2.484784 0 10 tcp 1040 ------- 0 4.4 10.0 513 5313
r 2.485616 0 10 tcp 1040 ------- 0 4.4 10.0 514 5315
r 2.526384 0 10 tcp 1040 ------- 0 4.4 10.0 515 5409
r 2.527216 0 10 tcp 1040 ------- 0 4.4 10.0 516 5411
r 2.528048 0 10 tcp 1040 ------- 0 4.4 10.0 517 5413
r 2.52888 0 10 tcp 1040 ------- 0 4.4 10.0 518 5415
r 2.529712 0 10 tcp 1040 ------- 0 4.4 10.0 519 5417
r 2.530544 0 10 tcp 1040 ------- 0 4.4 10.0 520 5419
r 2.531376 0 10 tcp 1040 ------- 0 4.4 10.0 521 5421
r 2.532208 0 10 tcp 1040 ------- 0 4.4 10.0 522 5422
r 2.53304 0 10 tcp 1040 ------- 0 4.4 10.0 523 5424
r 2.533872 0 10 tcp 1040 ------- 0 4.4 10.0 524 5426
r 2.534704 0 10 tcp 1040 ------- 0 4.4 10.0 525 5428
r 2.535536 0 10 tcp 1040 ------- 0 4.4 10.0 526 5430
r 2.536368 0 10 tcp 1040 ------- 0 4.4 10.0 527 5432
r 2.580464 0 10 tcp 1040 ------- 0 4.4 10.0 528 5534
r 2.581296 0 10 tcp 1040 ------- 0 4.4 10.0 529 5536
r 2.582128 0 10 tcp 1040 ------- 0 4.4 10.0 530 5538
r 2.58296 0 10 tcp 1040 ------- 0 4.4 10.0 531 5540
r 2.583792 0 10 tcp 1040 ------- 0 4.4 10.0 532 5542
r 2.584624 0 10 tcp 1040 ------- 0 4.4 10.0 533 5544
r 2.585456 0 10 tcp 1040 ------- 0 4.4 10.0 534 5546
r 2.586288 0 10 tcp 1040 ------- 0 4.4 10.0 535 5548
r 2.58712 0 10 tcp 1040 ------- 0 4.4 10.0 536 5549
r 2.587952 0 10 tcp 1040 ------- 0 4.4 10.0 537 5551
r 2.588784 0 10 tcp 1040 ------- 0 4.4 10.0 538 5553
r 2.589616 0 10 tcp 1040 ------- 0 4.4 10.0 539 5555
r 2.590448 0 10 tcp 1040 ------- 0 4.4 10.0 540 5557
r 2.59128 0 10 tcp 1040 ------- 0 4.4 10.0 541 5559
r 2.638704 0 10 tcp 1040 ------- 0 4.4 10.0 542 5669
r 2.639536 0 10 tcp 1040 ------- 0 4.4 10.0 543 5671
r 2.640368 0 10 tcp 1040 ------- 0 4.4 10.0 544 5673
r 2.6412 0 10 tcp 1040 ------- 0 4.4 10.0 545 5675
r 2.642032 0 10 tcp 1040 ------- 0 4.4 10.0 546 5677
r 2.642864 0 10 tcp 1040 ------- 0 4.4 10.0 547 5679
r 2.643696 0 10 tcp 1040 ------- 0 4.4 10.0 548 5681
r 2.644528 0 10 tcp 1040 ------- 0 4.4 10.0 549 5683
r 2.64536 0 10 tcp 1040 ------- 0 4.4 10.0 550 5685
r 2.646192 0 10 tcp 1040 ------- 0 4.4 10.0 551 5687
r 2.647024 0 10 tcp 1040 ------- 0 4.4 10.0 552 5688
r 2.647856 0 10 tcp 1040 ------- 0 4.4 10.0 553 5690
r 2.648688 0 10 tcp 1040 ------- 0 4.4 10.0 554 5692
r 2.64952 0 10 tcp 1040 ------- 0 4.4 10.0 555 5694
r 2.650352 0 10 tcp 1040 ------- 0 4.4 10.0 556 5696
r 2.701104 0 10 tcp 1040 ------- 0 4.4 10.0 557 5814
r 2.701936 0 10 tcp 1040 ------- 0 4.4 10.0 558 5816
r 2.702768 0 10 tcp 1040 ------- 0 4.4 10.0 559 5818
r 2.7036 0 10 tcp 1040 ------- 0 4.4 10.0 560 5820