r 0.111302 0 13 tcp 40 ------- 0 4.7 13.0 0 7
r 0.146855 0 13 tcp 1040 ------- 0 4.7 13.0 1 34
r 0.147687 0 13 tcp 1040 ------- 0 4.7 13.0 2 35
r 0.182632 0 13 tcp 1040 ------- 0 4.7 13.0 3 88
r 0.183464 0 13 tcp 1040 ------- 0 4.7 13.0 4 89
r 0.184296 0 13 tcp 1040 ------- 0 4.7 13.0 5 90
r 0.185128 0 13 tcp 1040 ------- 0 4.7 13.0 6 91
r 0.239208 0 13 tcp 1040 ------- 0 4.7 13.0 7 198
r 0.24004 0 13 tcp 1040 ------- 0 4.7 13.0 8 199
r 0.240872 0 13 tcp 1040 ------- 0 4.7 13.0 9 201
r 0.241704 0 13 tcp 1040 ------- 0 4.7 13.0 10 202
r 0.242536 0 13 tcp 1040 ------- 0 4.7 13.0 11 204
r 0.243368 0 13 tcp 1040 ------- 0 4.7 13.0 12 205
r 0.2442 0 13 tcp 1040 ------- 0 4.7 13.0 13 207
r 0.245032 0 13 tcp 1040 ------- 0 4.7 13.0 14 208
r 0.304104 0 13 tcp 1040 ------- 0 4.7 13.0 15 402
r 0.304936 0 13 tcp 1040 ------- 0 4.7 13.0 17 405
r 0.305768 0 13 tcp 1040 ------- 0 4.7 13.0 19 408
r 0.3066 0 13 tcp 1040 ------- 0 4.7 13.0 21 411
r 0.307432 0 13 tcp 1040 ------- 0 4.7 13.0 23 414
r 0.308264 0 13 tcp 1040 ------- 0 4.7 13.0 25 417
r 0.309096 0 13 tcp 1040 ------- 0 4.7 13.0 27 420
r 0.309928 0 13 tcp 1040 ------- 0 4.7 13.0 29 423
r 0.350696 0 13 tcp 1040 ------- 0 4.7 13.0 31 558
r 0.351528 0 13 tcp 1040 ------- 0 4.7 13.0 32 559
r 0.35236 0 13 tcp 1040 ------- 0 4.7 13.0 33 561
r 0.353192 0 13 tcp 1040 ------- 0 4.7 13.0 34 563
r 0.354024 0 13 tcp 1040 ---A--- 0 4.7 13.0 16 565
r 0.378153 0 13 tcp 1040 ------- 0 4.7 13.0 18 644
r 0.378985 0 13 tcp 1040 ------- 0 4.7 13.0 19 645
r 0.408937 0 13 tcp 1040 ------- 0 4.7 13.0 20 697
r 0.409769 0 13 tcp 1040 ------- 0 4.7 13.0 21 698
r 0.410601 0 13 tcp 1040 ------- 0 4.7 13.0 22 699
r 0.411433 0 13 tcp 1040 ------- 0 4.7 13.0 23 701
r 0.453865 0 13 tcp 1040 ------- 0 4.7 13.0 24 788
r 0.454697 0 13 tcp 1040 ------- 0 4.7 13.0 25 789
r 0.455529 0 13 tcp 1040 ------- 0 4.7 13.0 26 791
r 0.456361 0 13 tcp 1040 ------- 0 4.7 13.0 27 793
r 0.457193 0 13 tcp 1040 ------- 0 4.7 13.0 28 794
r 0.458025 0 13 tcp 1040 ------- 0 4.7 13.0 29 796
r 0.518761 0 13 tcp 1040 ------- 0 4.7 13.0 30 923
r 0.519593 0 13 tcp 1040 ------- 0 4.7 13.0 32 926
r 0.520425 0 13 tcp 1040 ------- 0 4.7 13.0 33 928
r 0.521257 0 13 tcp 1040 ------- 0 4.7 13.0 35 931
r 0.522089 0 13 tcp 1040 ------- 0 4.7 13.0 36 933
r 0.522921 0 13 tcp 1040 ------- 0 4.7 13.0 38 936
r 0.577833 0 13 tcp 1040 ------- 0 4.7 13.0 39 1082
r 0.578665 0 13 tcp 1040 ------- 0 4.7 13.0 40 1083
r 0.579497 0 13 tcp 1040 ------- 0 4.7 13.0 41 1084
r 0.580329 0 13 tcp 1040 ------- 0 4.7 13.0 42 1085
r 0.581161 0 13 tcp 1040 ------- 0 4.7 13.0 43 1087
r 0.581993 0 13 tcp 1040 ------- 0 4.7 13.0 44 1089
r 0.582825 0 13 tcp 1040 ------- 0 4.7 13.0 45 1093
r 0.632745 0 13 tcp 1040 ------- 0 4.7 13.0 46 1219
r 0.633577 0 13 tcp 1040 ---A--- 0 4.7 13.0 37 1221
r 0.674345 0 13 tcp 1040 ------- 0 4.7 13.0 47 1336
r 0.675177 0 13 tcp 1040 ------- 0 4.7 13.0 48 1337
r 0.725097 0 13 tcp 1040 ------- 0 4.7 13.0 49 1446
r 0.725929 0 13 tcp 1040 ------- 0 4.7 13.0 50 1447
r 0.726761 0 13 tcp 1040 ------- 0 4.7 13.0 51 1449
r 0.727593 0 13 tcp 1040 ------- 0 4.7 13.0 52 1450
r 0.783337 0 13 tcp 1040 ------- 0 4.7 13.0 53 1577
r 0.784169 0 13 tcp 1040 ------- 0 4.7 13.0 54 1579
r 0.785001 0 13 tcp 1040 ------- 0 4.7 13.0 55 1581
r 0.785833 0 13 tcp 1040 ------- 0 4.7 13.0 56 1583
r 0.848233 0 13 tcp 1040 ------- 0 4.7 13.0 57 1726
r 0.849065 0 13 tcp 1040 ------- 0 4.7 13.0 59 1729
r 0.849897 0 13 tcp 1040 ------- 0 4.7 13.0 60 1731
r 0.850729 0 13 tcp 1040 ------- 0 4.7 13.0 61 1733
r 0.913129 0 13 tcp 1040 ------- 0 4.7 13.0 62 1890
r 0.913961 0 13 tcp 1040 ------- 0 4.7 13.0 63 1892
r 0.914793 0 13 tcp 1040 ------- 0 4.7 13.0 64 1894
r 0.915625 0 13 tcp 1040 ---A--- 0 4.7 13.0 58 1896
r 0.976361 0 13 tcp 1040 ------- 0 4.7 13.0 65 2048
r 0.977193 0 13 tcp 1040 ------- 0 4.7 13.0 66 2049
r 1.00049 0 13 tcp 1040 ------- 0 4.7 13.0 67 2137
r 1.001322 0 13 tcp 1040 ------- 0 4.7 13.0 68 2139
r 1.02545 0 13 tcp 1040 ------- 0 4.7 13.0 69 2181
r 1.026282 0 13 tcp 1040 ------- 0 4.7 13.0 70 2182
r 1.027114 0 13 tcp 1040 ------- 0 4.7 13.0 71 2184
r 1.055402 0 13 tcp 1040 ------- 0 4.7 13.0 72 2241
r 1.056234 0 13 tcp 1040 ------- 0 4.7 13.0 73 2243
r 1.057066 0 13 tcp 1040 ------- 0 4.7 13.0 74 2244
r 1.057898 0 13 tcp 1040 ------- 0 4.7 13.0 75 2246
r 1.099498 0 13 tcp 1040 ------- 0 4.7 13.0 76 2330
r 1.10033 0 13 tcp 1040 ------- 0 4.7 13.0 77 2332
r 1.101162 0 13 tcp 1040 ------- 0 4.7 13.0 78 2334
r 1.101994 0 13 tcp 1040 ------- 0 4.7 13.0 79 2336
r 1.102826 0 13 tcp 1040 ------- 0 4.7 13.0 80 2337
r 1.15025 0 13 tcp 1040 ------- 0 4.7 13.0 81 2444
r 1.151082 0 13 tcp 1040 ------- 0 4.7 13.0 82 2446
r 1.151914 0 13 tcp 1040 ------- 0 4.7 13.0 83 2448
r 1.152746 0 13 tcp 1040 ------- 0 4.7 13.0 84 2450
r 1.153578 0 13 tcp 1040 ------- 0 4.7 13.0 85 2452
r 1.15441 0 13 tcp 1040 ------- 0 4.7 13.0 86 2453
r 1.209322 0 13 tcp 1040 ------- 0 4.7 13.0 87 2576
r 1.210154 0 13 tcp 1040 ------- 0 4.7 13.0 88 2578
r 1.210986 0 13 tcp 1040 ------- 0 4.7 13.0 89 2580
r 1.211818 0 13 tcp 1040 ------- 0 4.7 13.0 90 2582
r 1.21265 0 13 tcp 1040 ------- 0 4.7 13.0 91 2584
r 1.213482 0 13 tcp 1040 ------- 0 4.7 13.0 92 2586
r 1.214314 0 13 tcp 1040 ------- 0 4.7 13.0 93 2587
r 1.272554 0 13 tcp 1040 ------- 0 4.7 13.0 94 2723
r 1.273386 0 13 tcp 1040 ------- 0 4.7 13.0 95 2725
r 1.274218 0 13 tcp 1040 ------- 0 4.7 13.0 96 2727
r 1.27505 0 13 tcp 1040 ------- 0 4.7 13.0 97 2729
r 1.275882 0 13 tcp 1040 ------- 0 4.7 13.0 98 2731
r 1.276714 0 13 tcp 1040 ------- 0 4.7 13.0 99 2733
r 1.277546 0 13 tcp 1040 ------- 0 4.7 13.0 100 2735
r 1.33745 0 13 tcp 1040 ------- 0 4.7 13.0 101 2883
r 1.338282 0 13 tcp 1040 ------- 0 4.7 13.0 103 2886
r 1.339114 0 13 tcp 1040 ------- 0 4.7 13.0 104 2888
r 1.339946 0 13 tcp 1040 ------- 0 4.7 13.0 105 2890
r 1.340778 0 13 tcp 1040 ------- 0 4.7 13.0 106 2892
r 1.34161 0 13 tcp 1040 ------- 0 4.7 13.0 107 2894
r 1.342442 0 13 tcp 1040 ------- 0 4.7 13.0 108 2896
r 1.38321 0 13 tcp 1040 ------- 0 4.7 13.0 109 3020
r 1.384042 0 13 tcp 1040 ------- 0 4.7 13.0 110 3022
r 1.384874 0 13 tcp 1040 ------- 0 4.7 13.0 111 3024
r 1.385706 0 13 tcp 1040 ---A--- 0 4.7 13.0 102 3026
r 1.413994 0 13 tcp 1040 ------- 0 4.7 13.0 112 3115
r 1.414826 0 13 tcp 1040 ------- 0 4.7 13.0 113 3116
r 1.446443 0 13 tcp 1040 ------- 0 4.7 13.0 114 3171
r 1.447275 0 13 tcp 1040 ------- 0 4.7 13.0 115 3172
r 1.448107 0 13 tcp 1040 ------- 0 4.7 13.0 116 3173
r 1.448939 0 13 tcp 1040 ------- 0 4.7 13.0 117 3174
r 1.482219 0 13 tcp 1040 ------- 0 4.7 13.0 118 3252
r 1.483051 0 13 tcp 1040 ------- 0 4.7 13.0 119 3254
r 1.483883 0 13 tcp 1040 ------- 0 4.7 13.0 120 3256
r 1.484715 0 13 tcp 1040 ------- 0 4.7 13.0 121 3258
r 1.522987 0 13 tcp 1040 ------- 0 4.7 13.0 122 3344
r 1.523819 0 13 tcp 1040 ------- 0 4.7 13.0 123 3345
r 1.524651 0 13 tcp 1040 ------- 0 4.7 13.0 124 3347
r 1.525483 0 13 tcp 1040 ------- 0 4.7 13.0 125 3349
r 1.526315 0 13 tcp 1040 ------- 0 4.7 13.0 126 3351
r 1.572075 0 13 tcp 1040 ------- 0 4.7 13.0 127 3452
r 1.572907 0 13 tcp 1040 ------- 0 4.7 13.0 128 3454
r 1.573739 0 13 tcp 1040 ------- 0 4.7 13.0 129 3455
r 1.574571 0 13 tcp 1040 ------- 0 4.7 13.0 130 3457
r 1.575403 0 13 tcp 1040 ------- 0 4.7 13.0 131 3459
r 1.576235 0 13 tcp 1040 ------- 0 4.7 13.0 132 3461
r 1.628651 0 13 tcp 1040 ------- 0 4.7 13.0 133 3579
r 1.629483 0 13 tcp 1040 ------- 0 4.7 13.0 134 3581
r 1.630315 0 13 tcp 1040 ------- 0 4.7 13.0 135 3583
r 1.631147 0 13 tcp 1040 ------- 0 4.7 13.0 136 3585
r 1.631979 0 13 tcp 1040 ------- 0 4.7 13.0 137 3586
r 1.632811 0 13 tcp 1040 ------- 0 4.7 13.0 138 3588
r 1.633643 0 13 tcp 1040 ------- 0 4.7 13.0 139 3590
r 1.693547 0 13 tcp 1040 ------- 0 4.7 13.0 140 3725
r 1.694379 0 13 tcp 1040 ------- 0 4.7 13.0 141 3727
r 1.695211 0 13 tcp 1040 ------- 0 4.7 13.0 142 3729
r 1.696043 0 13 tcp 1040 ------- 0 4.7 13.0 143 3731
r 1.696875 0 13 tcp 1040 ------- 0 4.7 13.0 144 3733
r 1.697707 0 13 tcp 1040 ------- 0 4.7 13.0 146 3736
r 1.698539 0 13 tcp 1040 ------- 0 4.7 13.0 147 3738
r 1.758443 0 13 tcp 1040 ------- 0 4.7 13.0 148 3891
r 1.759275 0 13 tcp 1040 ------- 0 4.7 13.0 149 3893
r 1.760107 0 13 tcp 1040 ------- 0 4.7 13.0 150 3895
r 1.760939 0 13 tcp 1040 ------- 0 4.7 13.0 151 3897
r 1.761771 0 13 tcp 1040 ------- 0 4.7 13.0 152 3899
r 1.762603 0 13 tcp 1040 ------- 0 4.7 13.0 153 3901
r 1.763435 0 13 tcp 1040 ------- 0 4.7 13.0 154 3903
r 1.822507 0 13 tcp 1040 ---A--- 0 4.7 13.0 145 4046
r 1.846636 0 13 tcp 1040 ------- 0 4.7 13.0 155 4143
r 1.847468 0 13 tcp 1040 ------- 0 4.7 13.0 156 4144
r 1.870765 0 13 tcp 1040 ------- 0 4.7 13.0 157 4184
r 1.871597 0 13 tcp 1040 ------- 0 4.7 13.0 158 4185
r 1.872429 0 13 tcp 1040 ------- 0 4.7 13.0 159 4186
r 1.873261 0 13 tcp 1040 ------- 0 4.7 13.0 160 4187
r 1.904045 0 13 tcp 1040 ------- 0 4.7 13.0 161 4245
r 1.904877 0 13 tcp 1040 ------- 0 4.7 13.0 162 4247
r 1.905709 0 13 tcp 1040 ------- 0 4.7 13.0 163 4249
r 1.906541 0 13 tcp 1040 ------- 0 4.7 13.0 164 4251
r 1.941485 0 13 tcp 1040 ------- 0 4.7 13.0 165 4330
r 1.942317 0 13 tcp 1040 ------- 0 4.7 13.0 166 4331
r 1.943149 0 13 tcp 1040 ------- 0 4.7 13.0 167 4333
r 1.943981 0 13 tcp 1040 ------- 0 4.7 13.0 168 4335
r 1.944813 0 13 tcp 1040 ------- 0 4.7 13.0 169 4337
r 1.986413 0 13 tcp 1040 ------- 0 4.7 13.0 170 4429
r 1.987245 0 13 tcp 1040 ------- 0 4.7 13.0 171 4431
r 1.988077 0 13 tcp 1040 ------- 0 4.7 13.0 172 4432
r 1.988909 0 13 tcp 1040 ------- 0 4.7 13.0 173 4434
r 1.989741 0 13 tcp 1040 ------- 0 4.7 13.0 174 4436
r 1.990573 0 13 tcp 1040 ------- 0 4.7 13.0 175 4438
r 2.039661 0 13 tcp 1040 ------- 0 4.7 13.0 176 4547
r 2.040493 0 13 tcp 1040 ------- 0 4.7 13.0 177 4549
r 2.041325 0 13 tcp 1040 ------- 0 4.7 13.0 178 4551
r 2.042157 0 13 tcp 1040 ------- 0 4.7 13.0 179 4553
r 2.042989 0 13 tcp 1040 ------- 0 4.7 13.0 180 4554
r 2.043821 0 13 tcp 1040 ------- 0 4.7 13.0 181 4556
r 2.044653 0 13 tcp 1040 ------- 0 4.7 13.0 182 4558
r 2.101229 0 13 tcp 1040 ------- 0 4.7 13.0 183 4685
r 2.102061 0 13 tcp 1040 ------- 0 4.7 13.0 184 4687
r 2.102893 0 13 tcp 1040 ------- 0 4.7 13.0 185 4689
r 2.103725 0 13 tcp 1040 ------- 0 4.7 13.0 186 4691
r 2.104557 0 13 tcp 1040 ------- 0 4.7 13.0 187 4693
r 2.105389 0 13 tcp 1040 ------- 0 4.7 13.0 188 4694
r 2.106221 0 13 tcp 1040 ------- 0 4.7 13.0 189 4696
r 2.107053 0 13 tcp 1040 ------- 0 4.7 13.0 190 4698
r 2.166125 0 13 tcp 1040 ------- 0 4.7 13.0 191 4843
r 2.166957 0 13 tcp 1040 ------- 0 4.7 13.0 192 4845
r 2.167789 0 13 tcp 1040 ------- 0 4.7 13.0 193 4847
r 2.168621 0 13 tcp 1040 ------- 0 4.7 13.0 194 4849
r 2.169453 0 13 tcp 1040 ------- 0 4.7 13.0 195 4851
r 2.170285 0 13 tcp 1040 ------- 0 4.7 13.0 196 4853
r 2.171117 0 13 tcp 1040 ------- 0 4.7 13.0 197 4855
r 2.171949 0 13 tcp 1040 ------- 0 4.7 13.0 199 4858
r 2.230189 0 13 tcp 1040 ------- 0 4.7 13.0 200 5002
r 2.231021 0 13 tcp 1040 ------- 0 4.7 13.0 201 5004
r 2.231853 0 13 tcp 1040 ------- 0 4.7 13.0 202 5006
r 2.232685 0 13 tcp 1040 ------- 0 4.7 13.0 203 5008
r 2.233517 0 13 tcp 1040 ------- 0 4.7 13.0 204 5010
r 2.234349 0 13 tcp 1040 ------- 0 4.7 13.0 205 5012
r 2.235181 0 13 tcp 1040 ------- 0 4.7 13.0 206 5014
r 2.236013 0 13 tcp 1040 ------- 0 4.7 13.0 207 5016
r 2.265965 0 13 tcp 1040 ------- 0 4.7 13.0 208 5122
r 2.266797 0 13 tcp 1040 ---A--- 0 4.7 13.0 198 5124
r 2.293422 0 13 tcp 1040 ------- 0 4.7 13.0 209 5181
r 2.294254 0 13 tcp 1040 ------- 0 4.7 13.0 210 5182
r 2.32587 0 13 tcp 1040 ------- 0 4.7 13.0 211 5235
r 2.326702 0 13 tcp 1040 ------- 0 4.7 13.0 212 5236
r 2.327534 0 13 tcp 1040 ------- 0 4.7 13.0 213 5237
r 2.328366 0 13 tcp 1040 ------- 0 4.7 13.0 214 5238
r 2.359982 0 13 tcp 1040 ------- 0 4.7 13.0 215 5314
r 2.360814 0 13 tcp 1040 ------- 0 4.7 13.0 216 5316
r 2.361646 0 13 tcp 1040 ------- 0 4.7 13.0 217 5318
r 2.362478 0 13 tcp 1040 ------- 0 4.7 13.0 218 5320
r 2.399086 0 13 tcp 1040 ------- 0 4.7 13.0 219 5402
r 2.399918 0 13 tcp 1040 ------- 0 4.7 13.0 220 5403
r 2.40075 0 13 tcp 1040 ------- 0 4.7 13.0 221 5405
r 2.401582 0 13 tcp 1040 ------- 0 4.7 13.0 222 5407
r 2.402414 0 13 tcp 1040 ------- 0 4.7 13.0 223 5409
r 2.44651 0 13 tcp 1040 ------- 0 4.7 13.0 224 5506
r 2.447342 0 13 tcp 1040 ------- 0 4.7 13.0 225 5508
r 2.448174 0 13 tcp 1040 ------- 0 4.7 13.0 226 5509
r 2.449006 0 13 tcp 1040 ------- 0 4.7 13.0 227 5511
r 2.449838 0 13 tcp 1040 ------- 0 4.7 13.0 228 5513
r 2.45067 0 13 tcp 1040 ------- 0 4.7 13.0 229 5515
r 2.502254 0 13 tcp 1040 ------- 0 4.7 13.0 230 5630
r 2.503086 0 13 tcp 1040 ------- 0 4.7 13.0 231 5632
r 2.503918 0 13 tcp 1040 ------- 0 4.7 13.0 232 5634
r 2.50475 0 13 tcp 1040 ------- 0 4.7 13.0 233 5636
r 2.505582 0 13 tcp 1040 ------- 0 4.7 13.0 234 5637
r 2.506414 0 13 tcp 1040 ------- 0 4.7 13.0 235 5639
r 2.507246 0 13 tcp 1040 ------- 0 4.7 13.0 236 5641
r 2.566318 0 13 tcp 1040 ------- 0 4.7 13.0 237 5774
r 2.56715 0 13 tcp 1040 ------- 0 4.7 13.0 238 5776
r 2.567982 0 13 tcp 1040 ------- 0 4.7 13.0 239 5778
r 2.568814 0 13 tcp 1040 ------- 0 4.7 13.0 240 5780
r 2.569646 0 13 tcp 1040 ------- 0 4.7 13.0 241 5782
r 2.570478 0 13 tcp 1040 ------- 0 4.7 13.0 242 5783
r 2.57131 0 13 tcp 1040 ------- 0 4.7 13.0 243 5785
r 2.572142 0 13 tcp 1040 ------- 0 4.7 13.0 244 5787
r 2.631214 0 13 tcp 1040 ------- 0 4.7 13.0 245 5938
r 2.632046 0 13 tcp 1040 ------- 0 4.7 13.0 246 5940
r 2.632878 0 13 tcp 1040 ------- 0 4.7 13.0 247 5942
r 2.63371 0 13 tcp 1040 ------- 0 4.7 13.0 248 5944
r 2.634542 0 13 tcp 1040 ------- 0 4.7 13.0 249 5946
r 2.635374 0 13 tcp 1040 ------- 0 4.7 13.0 250 5948
r 2.636206 0 13 tcp 1040 ------- 0 4.7 13.0 251 5950
r 2.637038 0 13 tcp 1040 ------- 0 4.7 13.0 253 5953
r 2.69611 0 13 tcp 1040 ------- 0 4.7 13.0 254 6095
r 2.696942 0 13 tcp 1040 ------- 0 4.7 13.0 255 6097
r 2.697774 0 13 tcp 1040 ------- 0 4.7 13.0 256 6099
r 2.698606 0 13 tcp 1040 ------- 0 4.7 13.0 257 6101
r 2.699438 0 13 tcp 1040 ------- 0 4.7 13.0 258 6103
r 2.70027 0 13 tcp 1040 ------- 0 4.7 13.0 259 6105
r 2.701102 0 13 tcp 1040 ------- 0 4.7 13.0 260 6107
r 2.701934 0 13 tcp 1040 ------- 0 4.7 13.0 261 6109
r 2.720239 0 13 tcp 1040 ------- 0 4.7 13.0 262 6196
r 2.721071 0 13 tcp 1040 ---A--- 0 4.7 13.0 252 6198
r 2.7452 0 13 tcp 1040 ------- 0 4.7 13.0 263 6234
r 2.746032 0 13 tcp 1040 ------- 0 4.7 13.0 264 6235
r 2.780976 0 13 tcp 1040 ------- 0 4.7 13.0 265 6292
r 2.781808 0 13 tcp 1040 ------- 0 4.7 13.0 266 6293
r 2.78264 0 13 tcp 1040 ------- 0 4.7 13.0 267 6295
r 2.783472 0 13 tcp 1040 ------- 0 4.7 13.0 268 6296
r 2.815088 0 13 tcp 1040 ------- 0 4.7 13.0 269 6376
r 2.81592 0 13 tcp 1040 ------- 0 4.7 13.0 270 6378
r 2.816752 0 13 tcp 1040 ------- 0 4.7 13.0 271 6380
r 2.817584 0 13 tcp 1040 ------- 0 4.7 13.0 272 6382
r 2.856688 0 13 tcp 1040 ------- 0 4.7 13.0 273 6467
r 2.85752 0 13 tcp 1040 ------- 0 4.7 13.0 274 6468
r 2.858352 0 13 tcp 1040 ------- 0 4.7 13.0 275 6470
r 2.859184 0 13 tcp 1040 ------- 0 4.7 13.0 276 6472
r 2.860016 0 13 tcp 1040 ------- 0 4.7 13.0 277 6474
r 2.906608 0 13 tcp 1040 ------- 0 4.7 13.0 278 6577
r 2.90744 0 13 tcp 1040 ------- 0 4.7 13.0 279 6579
r 2.908272 0 13 tcp 1040 ------- 0 4.7 13.0 280 6580
r 2.909104 0 13 tcp 1040 ------- 0 4.7 13.0 281 6582
r 2.909936 0 13 tcp 1040 ------- 0 4.7 13.0 282 6584
r 2.910768 0 13 tcp 1040 ------- 0 4.7 13.0 283 6586
r 2.964848 0 13 tcp 1040 ------- 0 4.7 13.0 284 6707
r 2.96568 0 13 tcp 1040 ------- 0 4.7 13.0 285 6709
r 2.966512 0 13 tcp 1040 ------- 0 4.7 13.0 286 6711
r 2.967344 0 13 tcp 1040 ------- 0 4.7 13.0 287 6713
r 2.968176 0 13 tcp 1040 ------- 0 4.7 13.0 288 6714
r 2.969008 0 13 tcp 1040 ------- 0 4.7 13.0 289 6716
r 2.96984 0 13 tcp 1040 ------- 0 4.7 13.0 290 6718
r 3.029744 0 13 tcp 1040 ------- 0 4.7 13.0 291 6857
r 3.030576 0 13 tcp 1040 ------- 0 4.7 13.0 292 6859
r 3.031408 0 13 tcp 1040 ------- 0 4.7 13.0 293 6861
r 3.03224 0 13 tcp 1040 ------- 0 4.7 13.0 294 6863
r 3.033072 0 13 tcp 1040 ------- 0 4.7 13.0 295 6865
r 3.033904 0 13 tcp 1040 ------- 0 4.7 13.0 297 6868
r 3.034736 0 13 tcp 1040 ------- 0 4.7 13.0 298 6870
r 3.09464 0 13 tcp 1040 ------- 0 4.7 13.0 299 7073
r 3.095472 0 13 tcp 1040 ------- 0 4.7 13.0 300 7074
r 3.096304 0 13 tcp 1040 ------- 0 4.7 13.0 301 7075
r 3.097136 0 13 tcp 1040 ------- 0 4.7 13.0 302 7076
r 3.097968 0 13 tcp 1040 ------- 0 4.7 13.0 303 7077
r 3.0988 0 13 tcp 1040 ------- 0 4.7 13.0 304 7078
r 3.099632 0 13 tcp 1040 ------- 0 4.7 13.0 305 7079
r 3.150384 0 13 tcp 1040 ---A--- 0 4.7 13.0 296 7248
r 3.180215 0 13 tcp 1040 ------- 0 4.7 13.0 306 7405
r 3.181047 0 13 tcp 1040 ------- 0 4.7 13.0 307 7406
r 3.214489 0 13 tcp 1040 ------- 0 4.7 13.0 308 7489
r 3.215321 0 13 tcp 1040 ------- 0 4.7 13.0 309 7490
r 3.216153 0 13 tcp 1040 ------- 0 4.7 13.0 310 7491
r 3.216985 0 13 tcp 1040 ------- 0 4.7 13.0 311 7492
r 3.255257 0 13 tcp 1040 ------- 0 4.7 13.0 312 7607
r 3.256089 0 13 tcp 1040 ------- 0 4.7 13.0 313 7608
r 3.256921 0 13 tcp 1040 ------- 0 4.7 13.0 314 7609
r 3.257753 0 13 tcp 1040 ------- 0 4.7 13.0 315 7610
r 3.298521 0 13 tcp 1040 ------- 0 4.7 13.0 316 7713
r 3.299353 0 13 tcp 1040 ------- 0 4.7 13.0 317 7714
r 3.300185 0 13 tcp 1040 ------- 0 4.7 13.0 318 7716
r 3.301017 0 13 tcp 1040 ------- 0 4.7 13.0 319 7738
r 3.301849 0 13 tcp 1040 ------- 0 4.7 13.0 320 7740
r 3.350105 0 13 tcp 1040 ------- 0 4.7 13.0 321 7878
r 3.350937 0 13 tcp 1040 ------- 0 4.7 13.0 322 7879
r 3.351769 0 13 tcp 1040 ------- 0 4.7 13.0 323 7880
r 3.352601 0 13 tcp 1040 ------- 0 4.7 13.0 324 7881
r 3.353433 0 13 tcp 1040 ------- 0 4.7 13.0 325 7882
r 3.354265 0 13 tcp 1040 ------- 0 4.7 13.0 326 7883
r 3.410009 0 13 tcp 1040 ------- 0 4.7 13.0 327 8054
r 3.410841 0 13 tcp 1040 ------- 0 4.7 13.0 328 8055
r 3.411673 0 13 tcp 1040 ------- 0 4.7 13.0 329 8056
r 3.412505 0 13 tcp 1040 ------- 0 4.7 13.0 330 8057
r 3.413337 0 13 tcp 1040 ------- 0 4.7 13.0 331 8058
r 3.414169 0 13 tcp 1040 ------- 0 4.7 13.0 332 8059
r 3.415001 0 13 tcp 1040 ------- 0 4.7 13.0 333 8060
r 3.476569 0 13 tcp 1040 ------- 0 4.7 13.0 334 8241
r 3.477401 0 13 tcp 1040 ------- 0 4.7 13.0 335 8242
r 3.478233 0 13 tcp 1040 ------- 0 4.7 13.0 336 8243
r 3.479065 0 13 tcp 1040 ------- 0 4.7 13.0 337 8244
r 3.479897 0 13 tcp 1040 ------- 0 4.7 13.0 338 8245
r 3.480729 0 13 tcp 1040 ------- 0 4.7 13.0 339 8246
r 3.481561 0 13 tcp 1040 ------- 0 4.7 13.0 340 8247
r 3.482393 0 13 tcp 1040 ------- 0 4.7 13.0 341 8248
r 3.541465 0 13 tcp 1040 ------- 0 4.7 13.0 342 8463
r 3.542297 0 13 tcp 1040 ------- 0 4.7 13.0 343 8465
r 3.543129 0 13 tcp 1040 ------- 0 4.7 13.0 344 8467
r 3.543961 0 13 tcp 1040 ------- 0 4.7 13.0 345 8469
r 3.544793 0 13 tcp 1040 ------- 0 4.7 13.0 346 8471
r 3.545625 0 13 tcp 1040 ------- 0 4.7 13.0 347 8473
r 3.546457 0 13 tcp 1040 ------- 0 4.7 13.0 348 8475
r 3.547289 0 13 tcp 1040 ------- 0 4.7 13.0 350 8493
r 3.595545 0 13 tcp 1040 ------- 0 4.7 13.0 351 8658
r 3.596377 0 13 tcp 1040 ------- 0 4.7 13.0 352 8659
r 3.597209 0 13 tcp 1040 ------- 0 4.7 13.0 353 8660
r 3.598041 0 13 tcp 1040 ------- 0 4.7 13.0 354 8661
r 3.598873 0 13 tcp 1040 ------- 0 4.7 13.0 355 8662
r 3.599705 0 13 tcp 1040 ------- 0 4.7 13.0 356 8663
r 3.600537 0 13 tcp 1040 ------- 0 4.7 13.0 357 8664
r 3.601369 0 13 tcp 1040 ------- 0 4.7 13.0 358 8665
r 3.631321 0 13 tcp 1040 ------- 0 4.7 13.0 359 8805
r 3.632153 0 13 tcp 1040 ---A--- 0 4.7 13.0 349 8806
r 3.674838 0 13 tcp 1040 ------- 0 4.7 13.0 360 8930
r 3.67567 0 13 tcp 1040 ------- 0 4.7 13.0 361 8931
r 3.72559 0 13 tcp 1040 ------- 0 4.7 13.0 362 9068
r 3.726422 0 13 tcp 1040 ------- 0 4.7 13.0 363 9069
r 3.727254 0 13 tcp 1040 ------- 0 4.7 13.0 364 9070
r 3.728086 0 13 tcp 1040 ------- 0 4.7 13.0 365 9071
r 3.780502 0 13 tcp 1040 ------- 0 4.7 13.0 366 9239
r 3.781334 0 13 tcp 1040 ------- 0 4.7 13.0 367 9240
r 3.782166 0 13 tcp 1040 ------- 0 4.7 13.0 368 9241
r 3.782998 0 13 tcp 1040 ------- 0 4.7 13.0 369 9242
r 3.841238 0 13 tcp 1040 ------- 0 4.7 13.0 370 9416
r 3.84207 0 13 tcp 1040 ------- 0 4.7 13.0 371 9417
r 3.842902 0 13 tcp 1040 ------- 0 4.7 13.0 372 9418
r 3.843734 0 13 tcp 1040 ------- 0 4.7 13.0 373 9419
r 3.844566 0 13 tcp 1040 ------- 0 4.7 13.0 374 9420
r 3.906966 0 13 tcp 1040 ------- 0 4.7 13.0 375 9604
r 3.907798 0 13 tcp 1040 ------- 0 4.7 13.0 376 9605
r 3.90863 0 13 tcp 1040 ------- 0 4.7 13.0 377 9606
r 3.909462 0 13 tcp 1040 ------- 0 4.7 13.0 378 9607
r 3.910294 0 13 tcp 1040 ------- 0 4.7 13.0 379 9608
r 3.911126 0 13 tcp 1040 ------- 0 4.7 13.0 380 9610
r 3.968534 0 13 tcp 1040 ------- 0 4.7 13.0 381 9821
r 3.969366 0 13 tcp 1040 ------- 0 4.7 13.0 382 9823
r 3.970198 0 13 tcp 1040 ------- 0 4.7 13.0 383 9825
r 3.97103 0 13 tcp 1040 ------- 0 4.7 13.0 384 9827
r 3.971862 0 13 tcp 1040 ------- 0 4.7 13.0 385 9828
r 3.972694 0 13 tcp 1040 ------- 0 4.7 13.0 386 9830
r 3.973526 0 13 tcp 1040 ------- 0 4.7 13.0 387 9847
r 4.010134 0 13 tcp 1040 ------- 0 4.7 13.0 388 9995
r 4.010966 0 13 tcp 1040 ------- 0 4.7 13.0 389 9996
r 4.011798 0 13 tcp 1040 ------- 0 4.7 13.0 390 9997
r 4.01263 0 13 tcp 1040 ------- 0 4.7 13.0 391 9999
r 4.013462 0 13 tcp 1040 ------- 0 4.7 13.0 392 10000
r 4.014294 0 13 tcp 1040 ------- 0 4.7 13.0 393 10001
r 4.015126 0 13 tcp 1040 ------- 0 4.7 13.0 394 10002
r 4.015958 0 13 tcp 1040 ------- 0 4.7 13.0 395 10003
r 4.049006 0 13 tcp 1040 ------- 0 4.7 13.0 396 10119
r 4.049838 0 13 tcp 1040 ------- 0 4.7 13.0 397 10121
r 4.05067 0 13 tcp 1040 ------- 0 4.7 13.0 398 10123
r 4.051502 0 13 tcp 1040 ------- 0 4.7 13.0 399 10125
r 4.052334 0 13 tcp 1040 ------- 0 4.7 13.0 400 10127
r 4.053166 0 13 tcp 1040 ------- 0 4.7 13.0 401 10129
r 4.053998 0 13 tcp 1040 ------- 0 4.7 13.0 402 10130
r 4.05483 0 13 tcp 1040 ------- 0 4.7 13.0 403 10131
r 4.055662 0 13 tcp 1040 ------- 0 4.7 13.0 404 10132
r 4.098094 0 13 tcp 1040 ------- 0 4.7 13.0 405 10252
r 4.098926 0 13 tcp 1040 ------- 0 4.7 13.0 406 10253
r 4.099758 0 13 tcp 1040 ------- 0 4.7 13.0 407 10254
r 4.10059 0 13 tcp 1040 ------- 0 4.7 13.0 408 10255
r 4.101422 0 13 tcp 1040 ------- 0 4.7 13.0 409 10256
r 4.102254 0 13 tcp 1040 ------- 0 4.7 13.0 410 10257
r 4.103086 0 13 tcp 1040 ------- 0 4.7 13.0 411 10258
r 4.103918 0 13 tcp 1040 ------- 0 4.7 13.0 412 10259
r 4.10475 0 13 tcp 1040 ------- 0 4.7 13.0 413 10260
r 4.105582 0 13 tcp 1040 ------- 0 4.7 13.0 414 10262
r 4.156334 0 13 tcp 1040 ------- 0 4.7 13.0 415 10411
r 4.157166 0 13 tcp 1040 ------- 0 4.7 13.0 416 10428
r 4.157998 0 13 tcp 1040 ------- 0 4.7 13.0 417 10429
r 4.15883 0 13 tcp 1040 ------- 0 4.7 13.0 418 10430
r 4.159662 0 13 tcp 1040 ------- 0 4.7 13.0 419 10431
r 4.160494 0 13 tcp 1040 ------- 0 4.7 13.0 420 10432
r 4.161326 0 13 tcp 1040 ------- 0 4.7 13.0 421 10433
r 4.162158 0 13 tcp 1040 ------- 0 4.7 13.0 422 10434
r 4.16299 0 13 tcp 1040 ------- 0 4.7 13.0 423 10435
r 4.163822 0 13 tcp 1040 ------- 0 4.7 13.0 424 10436
r 4.164654 0 13 tcp 1040 ------- 0 4.7 13.0 425 10437
r 4.219566 0 13 tcp 1040 ------- 0 4.7 13.0 426 10607
r 4.220398 0 13 tcp 1040 ------- 0 4.7 13.0 427 10608
r 4.22123 0 13 tcp 1040 ------- 0 4.7 13.0 428 10609
r 4.222062 0 13 tcp 1040 ------- 0 4.7 13.0 429 10610
r 4.222894 0 13 tcp 1040 ------- 0 4.7 13.0 430 10611
r 4.223726 0 13 tcp 1040 ------- 0 4.7 13.0 431 10612
r 4.224558 0 13 tcp 1040 ------- 0 4.7 13.0 432 10613
r 4.22539 0 13 tcp 1040 ------- 0 4.7 13.0 433 10614
r 4.226222 0 13 tcp 1040 ------- 0 4.7 13.0 434 10615
r 4.227054 0 13 tcp 1040 ------- 0 4.7 13.0 435 10616
r 4.227886 0 13 tcp 1040 ------- 0 4.7 13.0 436 10617
r 4.228718 0 13 tcp 1040 ------- 0 4.7 13.0 437 10618
r 4.285294 0 13 tcp 1040 ------- 0 4.7 13.0 438 10798
r 4.286126 0 13 tcp 1040 ------- 0 4.7 13.0 439 10800
r 4.286958 0 13 tcp 1040 ------- 0 4.7 13.0 440 10822
r 4.28779 0 13 tcp 1040 ------- 0 4.7 13.0 442 10826
r 4.288622 0 13 tcp 1040 ------- 0 4.7 13.0 443 10828
r 4.289454 0 13 tcp 1040 ------- 0 4.7 13.0 444 10830
r 4.290286 0 13 tcp 1040 ------- 0 4.7 13.0 445 10832
r 4.291118 0 13 tcp 1040 ------- 0 4.7 13.0 446 10834
r 4.29195 0 13 tcp 1040 ------- 0 4.7 13.0 447 10836
r 4.292782 0 13 tcp 1040 ------- 0 4.7 13.0 448 10838
r 4.293614 0 13 tcp 1040 ------- 0 4.7 13.0 449 10840
r 4.35019 0 13 tcp 1040 ------- 0 4.7 13.0 451 11021
r 4.351022 0 13 tcp 1040 ------- 0 4.7 13.0 452 11038
r 4.351854 0 13 tcp 1040 ------- 0 4.7 13.0 453 11039
r 4.352686 0 13 tcp 1040 ------- 0 4.7 13.0 454 11040
r 4.353518 0 13 tcp 1040 ------- 0 4.7 13.0 455 11041
r 4.35435 0 13 tcp 1040 ---A--- 0 4.7 13.0 441 11042
r 4.401774 0 13 tcp 1040 ------- 0 4.7 13.0 450 11206
r 4.402606 0 13 tcp 1040 ------- 0 4.7 13.0 451 11207
r 4.44587 0 13 tcp 1040 ------- 0 4.7 13.0 456 11361
r 4.446702 0 13 tcp 1040 ------- 0 4.7 13.0 457 11362
r 4.447534 0 13 tcp 1040 ------- 0 4.7 13.0 458 11363
r 4.448366 0 13 tcp 1040 ------- 0 4.7 13.0 459 11364
r 4.500782 0 13 tcp 1040 ------- 0 4.7 13.0 460 11515
r 4.501614 0 13 tcp 1040 ------- 0 4.7 13.0 461 11532
r 4.502446 0 13 tcp 1040 ------- 0 4.7 13.0 462 11533
r 4.503278 0 13 tcp 1040 ------- 0 4.7 13.0 463 11534
r 4.50411 0 13 tcp 1040 ------- 0 4.7 13.0 464 11535
r 4.504942 0 13 tcp 1040 ------- 0 4.7 13.0 465 11536
r 4.565678 0 13 tcp 1040 ------- 0 4.7 13.0 466 11717
r 4.56651 0 13 tcp 1040 ------- 0 4.7 13.0 467 11718
r 4.567342 0 13 tcp 1040 ------- 0 4.7 13.0 468 11719
r 4.568174 0 13 tcp 1040 ------- 0 4.7 13.0 469 11720
r 4.569006 0 13 tcp 1040 ------- 0 4.7 13.0 470 11721
r 4.569838 0 13 tcp 1040 ------- 0 4.7 13.0 471 11722
r 4.57067 0 13 tcp 1040 ------- 0 4.7 13.0 472 11723
r 4.631406 0 13 tcp 1040 ------- 0 4.7 13.0 473 11904
r 4.632238 0 13 tcp 1040 ------- 0 4.7 13.0 474 11905
r 4.63307 0 13 tcp 1040 ------- 0 4.7 13.0 475 11907
r 4.633902 0 13 tcp 1040 ------- 0 4.7 13.0 476 11909
r 4.634734 0 13 tcp 1040 ------- 0 4.7 13.0 477 11911
r 4.635566 0 13 tcp 1040 ------- 0 4.7 13.0 478 11933
r 4.69131 0 13 tcp 1040 ------- 0 4.7 13.0 481 12117
r 4.692142 0 13 tcp 1040 ------- 0 4.7 13.0 482 12119
r 4.692974 0 13 tcp 1040 ------- 0 4.7 13.0 483 12121
r 4.693806 0 13 tcp 1040 ------- 0 4.7 13.0 484 12123
r 4.694638 0 13 tcp 1040 ------- 0 4.7 13.0 485 12139
r 4.69547 0 13 tcp 1040 ------- 0 4.7 13.0 486 12140
r 4.752046 0 13 tcp 1040 ------- 0 4.7 13.0 487 12313
r 4.752878 0 13 tcp 1040 ------- 0 4.7 13.0 488 12314
r 4.75371 0 13 tcp 1040 ---A--- 0 4.7 13.0 479 12315
r 4.81195 0 13 tcp 1040 ------- 0 4.7 13.0 480 12490
r 4.812782 0 13 tcp 1040 ------- 0 4.7 13.0 481 12491
r 4.877678 0 13 tcp 1040 ------- 0 4.7 13.0 492 12706
r 4.941742 0 13 tcp 1040 ------- 0 4.7 13.0 493 12919
r 5.045982 0 13 tcp 1040 ---A--- 0 4.7 13.0 489 13289
r 5.089246 0 13 tcp 1040 ------- 0 4.7 13.0 490 13405
r 5.090078 0 13 tcp 1040 ------- 0 4.7 13.0 491 13406
r 5.143326 0 13 tcp 1040 ------- 0 4.7 13.0 492 13559
r 5.144158 0 13 tcp 1040 ------- 0 4.7 13.0 494 13576
r 5.14499 0 13 tcp 1040 ------- 0 4.7 13.0 495 13577
r 5.204894 0 13 tcp 1040 ------- 0 4.7 13.0 496 13753
r 5.205726 0 13 tcp 1040 ------- 0 4.7 13.0 497 13754
r 5.206558 0 13 tcp 1040 ------- 0 4.7 13.0 498 13755
r 5.26979 0 13 tcp 1040 ------- 0 4.7 13.0 499 13941
r 5.270622 0 13 tcp 1040 ------- 0 4.7 13.0 500 13942
r 5.271454 0 13 tcp 1040 ------- 0 4.7 13.0 501 13943
r 5.272286 0 13 tcp 1040 ------- 0 4.7 13.0 502 13944
r 5.33219 0 13 tcp 1040 ------- 0 4.7 13.0 503 14154
r 5.333022 0 13 tcp 1040 ------- 0 4.7 13.0 504 14156
r 5.333854 0 13 tcp 1040 ------- 0 4.7 13.0 505 14158
r 5.334686 0 13 tcp 1040 ------- 0 4.7 13.0 506 14160
r 5.335518 0 13 tcp 1040 ------- 0 4.7 13.0 507 14161
r 5.387102 0 13 tcp 1040 ------- 0 4.7 13.0 508 14348
r 5.387934 0 13 tcp 1040 ------- 0 4.7 13.0 509 14349
r 5.388766 0 13 tcp 1040 ------- 0 4.7 13.0 510 14350
r 5.389598 0 13 tcp 1040 ------- 0 4.7 13.0 511 14351
r 5.39043 0 13 tcp 1040 ------- 0 4.7 13.0 512 14352
r 5.391262 0 13 tcp 1040 ------- 0 4.7 13.0 513 14353
r 5.437022 0 13 tcp 1040 ------- 0 4.7 13.0 514 14513
r 5.437854 0 13 tcp 1040 ------- 0 4.7 13.0 515 14514
r 5.438686 0 13 tcp 1040 ------- 0 4.7 13.0 516 14515
r 5.439518 0 13 tcp 1040 ------- 0 4.7 13.0 517 14516
r 5.44035 0 13 tcp 1040 ------- 0 4.7 13.0 518 14517
r 5.441182 0 13 tcp 1040 ------- 0 4.7 13.0 519 14518
r 5.442014 0 13 tcp 1040 ------- 0 4.7 13.0 520 14519
r 5.496926 0 13 tcp 1040 ------- 0 4.7 13.0 521 14673
r 5.497758 0 13 tcp 1040 ------- 0 4.7 13.0 522 14690
r 5.49859 0 13 tcp 1040 ------- 0 4.7 13.0 523 14691
r 5.499422 0 13 tcp 1040 ------- 0 4.7 13.0 524 14692
r 5.500254 0 13 tcp 1040 ------- 0 4.7 13.0 525 14693
r 5.501086 0 13 tcp 1040 ------- 0 4.7 13.0 526 14694
r 5.501918 0 13 tcp 1040 ------- 0 4.7 13.0 527 14695
r 5.560158 0 13 tcp 1040 ------- 0 4.7 13.0 528 14870
r 5.56099 0 13 tcp 1040 ------- 0 4.7 13.0 529 14871
r 5.561822 0 13 tcp 1040 ------- 0 4.7 13.0 530 14872
r 5.562654 0 13 tcp 1040 ------- 0 4.7 13.0 531 14873
r 5.563486 0 13 tcp 1040 ------- 0 4.7 13.0 532 14874
r 5.564318 0 13 tcp 1040 ------- 0 4.7 13.0 533 14875
r 5.56515 0 13 tcp 1040 ------- 0 4.7 13.0 534 14876
r 5.565982 0 13 tcp 1040 ------- 0 4.7 13.0 535 14877
r 5.625886 0 13 tcp 1040 ------- 0 4.7 13.0 536 15060
r 5.626718 0 13 tcp 1040 ------- 0 4.7 13.0 538 15083
r 5.62755 0 13 tcp 1040 ------- 0 4.7 13.0 540 15087
r 5.628382 0 13 tcp 1040 ------- 0 4.7 13.0 541 15089
r 5.629214 0 13 tcp 1040 ------- 0 4.7 13.0 542 15091
r 5.630046 0 13 tcp 1040 ------- 0 4.7 13.0 543 15093
r 5.630878 0 13 tcp 1040 ------- 0 4.7 13.0 544 15095
r 5.690782 0 13 tcp 1040 ------- 0 4.7 13.0 545 15298
r 5.691614 0 13 tcp 1040 ------- 0 4.7 13.0 546 15299
r 5.692446 0 13 tcp 1040 ------- 0 4.7 13.0 547 15300
r 5.693278 0 13 tcp 1040 ---A--- 0 4.7 13.0 537 15301
r 5.738206 0 13 tcp 1040 ------- 0 4.7 13.0 539 15462
r 5.739038 0 13 tcp 1040 ------- 0 4.7 13.0 540 15463
r 5.775934 0 13 tcp 1040 ------- 0 4.7 13.0 548 15598
r 5.776766 0 13 tcp 1040 ------- 0 4.7 13.0 549 15599
r 5.777598 0 13 tcp 1040 ------- 0 4.7 13.0 550 15600
r 5.77843 0 13 tcp 1040 ------- 0 4.7 13.0 551 15601
r 5.810878 0 13 tcp 1040 ------- 0 4.7 13.0 552 15706
r 5.81171 0 13 tcp 1040 ------- 0 4.7 13.0 553 15708
r 5.812542 0 13 tcp 1040 ------- 0 4.7 13.0 554 15710