r 0.111334 0 14 tcp 40 ------- 0 4.8 14.0 0 8
r 0.148519 0 14 tcp 1040 ------- 0 4.8 14.0 1 36
r 0.149351 0 14 tcp 1040 ------- 0 4.8 14.0 2 37
r 0.18596 0 14 tcp 1040 ------- 0 4.8 14.0 3 93
r 0.186792 0 14 tcp 1040 ------- 0 4.8 14.0 4 94
r 0.187624 0 14 tcp 1040 ------- 0 4.8 14.0 5 96
r 0.188456 0 14 tcp 1040 ------- 0 4.8 14.0 6 97
r 0.245864 0 14 tcp 1040 ------- 0 4.8 14.0 7 210
r 0.246696 0 14 tcp 1040 ------- 0 4.8 14.0 8 211
r 0.247528 0 14 tcp 1040 ------- 0 4.8 14.0 9 213
r 0.24836 0 14 tcp 1040 ------- 0 4.8 14.0 10 214
r 0.249192 0 14 tcp 1040 ------- 0 4.8 14.0 11 216
r 0.250024 0 14 tcp 1040 ------- 0 4.8 14.0 12 217
r 0.250856 0 14 tcp 1040 ------- 0 4.8 14.0 13 219
r 0.251688 0 14 tcp 1040 ------- 0 4.8 14.0 14 220
r 0.31076 0 14 tcp 1040 ------- 0 4.8 14.0 15 426
r 0.311592 0 14 tcp 1040 ------- 0 4.8 14.0 17 429
r 0.312424 0 14 tcp 1040 ------- 0 4.8 14.0 19 432
r 0.313256 0 14 tcp 1040 ------- 0 4.8 14.0 21 435
r 0.314088 0 14 tcp 1040 ------- 0 4.8 14.0 23 438
r 0.31492 0 14 tcp 1040 ------- 0 4.8 14.0 25 441
r 0.315752 0 14 tcp 1040 ------- 0 4.8 14.0 27 444
r 0.316584 0 14 tcp 1040 ------- 0 4.8 14.0 29 447
r 0.354856 0 14 tcp 1040 ------- 0 4.8 14.0 31 571
r 0.355688 0 14 tcp 1040 ------- 0 4.8 14.0 32 572
r 0.35652 0 14 tcp 1040 ------- 0 4.8 14.0 33 574
r 0.357352 0 14 tcp 1040 ------- 0 4.8 14.0 34 576
r 0.358184 0 14 tcp 1040 ---A--- 0 4.8 14.0 16 578
r 0.382313 0 14 tcp 1040 ------- 0 4.8 14.0 18 650
r 0.383145 0 14 tcp 1040 ------- 0 4.8 14.0 19 651
r 0.412265 0 14 tcp 1040 ------- 0 4.8 14.0 20 706
r 0.413097 0 14 tcp 1040 ------- 0 4.8 14.0 21 707
r 0.413929 0 14 tcp 1040 ------- 0 4.8 14.0 22 708
r 0.414761 0 14 tcp 1040 ------- 0 4.8 14.0 23 710
r 0.458857 0 14 tcp 1040 ------- 0 4.8 14.0 24 798
r 0.459689 0 14 tcp 1040 ------- 0 4.8 14.0 25 799
r 0.460521 0 14 tcp 1040 ------- 0 4.8 14.0 26 801
r 0.461353 0 14 tcp 1040 ------- 0 4.8 14.0 27 803
r 0.462185 0 14 tcp 1040 ------- 0 4.8 14.0 28 804
r 0.463017 0 14 tcp 1040 ------- 0 4.8 14.0 29 806
r 0.523753 0 14 tcp 1040 ------- 0 4.8 14.0 30 938
r 0.524585 0 14 tcp 1040 ------- 0 4.8 14.0 32 941
r 0.525417 0 14 tcp 1040 ------- 0 4.8 14.0 33 943
r 0.526249 0 14 tcp 1040 ------- 0 4.8 14.0 35 946
r 0.527081 0 14 tcp 1040 ------- 0 4.8 14.0 36 948
r 0.527913 0 14 tcp 1040 ------- 0 4.8 14.0 38 951
r 0.583657 0 14 tcp 1040 ------- 0 4.8 14.0 39 1095
r 0.584489 0 14 tcp 1040 ------- 0 4.8 14.0 40 1096
r 0.585321 0 14 tcp 1040 ------- 0 4.8 14.0 41 1097
r 0.586153 0 14 tcp 1040 ------- 0 4.8 14.0 42 1098
r 0.586985 0 14 tcp 1040 ------- 0 4.8 14.0 43 1100
r 0.587817 0 14 tcp 1040 ------- 0 4.8 14.0 44 1102
r 0.588649 0 14 tcp 1040 ------- 0 4.8 14.0 45 1106
r 0.634409 0 14 tcp 1040 ------- 0 4.8 14.0 46 1228
r 0.635241 0 14 tcp 1040 ---A--- 0 4.8 14.0 37 1230
r 0.676009 0 14 tcp 1040 ------- 0 4.8 14.0 47 1340
r 0.676841 0 14 tcp 1040 ------- 0 4.8 14.0 48 1341
r 0.728425 0 14 tcp 1040 ------- 0 4.8 14.0 49 1452
r 0.729257 0 14 tcp 1040 ------- 0 4.8 14.0 50 1453
r 0.730089 0 14 tcp 1040 ------- 0 4.8 14.0 51 1455
r 0.730921 0 14 tcp 1040 ------- 0 4.8 14.0 52 1456
r 0.786665 0 14 tcp 1040 ------- 0 4.8 14.0 53 1585
r 0.787497 0 14 tcp 1040 ------- 0 4.8 14.0 54 1587
r 0.788329 0 14 tcp 1040 ------- 0 4.8 14.0 55 1589
r 0.789161 0 14 tcp 1040 ------- 0 4.8 14.0 56 1591
r 0.851561 0 14 tcp 1040 ------- 0 4.8 14.0 57 1735
r 0.852393 0 14 tcp 1040 ------- 0 4.8 14.0 59 1738
r 0.853225 0 14 tcp 1040 ------- 0 4.8 14.0 60 1740
r 0.854057 0 14 tcp 1040 ------- 0 4.8 14.0 61 1742
r 0.916457 0 14 tcp 1040 ------- 0 4.8 14.0 62 1898
r 0.917289 0 14 tcp 1040 ------- 0 4.8 14.0 63 1900
r 0.918121 0 14 tcp 1040 ------- 0 4.8 14.0 64 1902
r 0.918953 0 14 tcp 1040 ---A--- 0 4.8 14.0 58 1904
r 0.978025 0 14 tcp 1040 ------- 0 4.8 14.0 65 2054
r 0.978857 0 14 tcp 1040 ------- 0 4.8 14.0 66 2055
r 1.002154 0 14 tcp 1040 ------- 0 4.8 14.0 67 2141
r 1.002986 0 14 tcp 1040 ------- 0 4.8 14.0 68 2143
r 1.027946 0 14 tcp 1040 ------- 0 4.8 14.0 69 2186
r 1.028778 0 14 tcp 1040 ------- 0 4.8 14.0 70 2187
r 1.02961 0 14 tcp 1040 ------- 0 4.8 14.0 71 2189
r 1.05873 0 14 tcp 1040 ------- 0 4.8 14.0 72 2248
r 1.059562 0 14 tcp 1040 ------- 0 4.8 14.0 73 2250
r 1.060394 0 14 tcp 1040 ------- 0 4.8 14.0 74 2251
r 1.061226 0 14 tcp 1040 ------- 0 4.8 14.0 75 2253
r 1.103658 0 14 tcp 1040 ------- 0 4.8 14.0 76 2339
r 1.10449 0 14 tcp 1040 ------- 0 4.8 14.0 77 2341
r 1.105322 0 14 tcp 1040 ------- 0 4.8 14.0 78 2343
r 1.106154 0 14 tcp 1040 ------- 0 4.8 14.0 79 2345
r 1.106986 0 14 tcp 1040 ------- 0 4.8 14.0 80 2346
r 1.155242 0 14 tcp 1040 ------- 0 4.8 14.0 81 2455
r 1.156074 0 14 tcp 1040 ------- 0 4.8 14.0 82 2457
r 1.156906 0 14 tcp 1040 ------- 0 4.8 14.0 83 2459
r 1.157738 0 14 tcp 1040 ------- 0 4.8 14.0 84 2461
r 1.15857 0 14 tcp 1040 ------- 0 4.8 14.0 85 2463
r 1.159402 0 14 tcp 1040 ------- 0 4.8 14.0 86 2464
r 1.215146 0 14 tcp 1040 ------- 0 4.8 14.0 87 2589
r 1.215978 0 14 tcp 1040 ------- 0 4.8 14.0 88 2591
r 1.21681 0 14 tcp 1040 ------- 0 4.8 14.0 89 2593
r 1.217642 0 14 tcp 1040 ------- 0 4.8 14.0 90 2595
r 1.218474 0 14 tcp 1040 ------- 0 4.8 14.0 91 2597
r 1.219306 0 14 tcp 1040 ------- 0 4.8 14.0 92 2599
r 1.220138 0 14 tcp 1040 ------- 0 4.8 14.0 93 2600
r 1.278378 0 14 tcp 1040 ------- 0 4.8 14.0 94 2737
r 1.27921 0 14 tcp 1040 ------- 0 4.8 14.0 95 2739
r 1.280042 0 14 tcp 1040 ------- 0 4.8 14.0 96 2741
r 1.280874 0 14 tcp 1040 ------- 0 4.8 14.0 97 2743
r 1.281706 0 14 tcp 1040 ------- 0 4.8 14.0 98 2745
r 1.282538 0 14 tcp 1040 ------- 0 4.8 14.0 99 2747
r 1.28337 0 14 tcp 1040 ------- 0 4.8 14.0 100 2749
r 1.343274 0 14 tcp 1040 ------- 0 4.8 14.0 101 2898
r 1.344106 0 14 tcp 1040 ------- 0 4.8 14.0 103 2901
r 1.344938 0 14 tcp 1040 ------- 0 4.8 14.0 104 2903
r 1.34577 0 14 tcp 1040 ------- 0 4.8 14.0 105 2905
r 1.346602 0 14 tcp 1040 ------- 0 4.8 14.0 106 2907
r 1.347434 0 14 tcp 1040 ------- 0 4.8 14.0 107 2909
r 1.348266 0 14 tcp 1040 ------- 0 4.8 14.0 108 2911
r 1.386538 0 14 tcp 1040 ------- 0 4.8 14.0 109 3031
r 1.38737 0 14 tcp 1040 ------- 0 4.8 14.0 110 3033
r 1.388202 0 14 tcp 1040 ------- 0 4.8 14.0 111 3035
r 1.389034 0 14 tcp 1040 ---A--- 0 4.8 14.0 102 3037
r 1.415658 0 14 tcp 1040 ------- 0 4.8 14.0 112 3121
r 1.41649 0 14 tcp 1040 ------- 0 4.8 14.0 113 3122
r 1.449771 0 14 tcp 1040 ------- 0 4.8 14.0 114 3176
r 1.450603 0 14 tcp 1040 ------- 0 4.8 14.0 115 3177
r 1.451435 0 14 tcp 1040 ------- 0 4.8 14.0 116 3179
r 1.452267 0 14 tcp 1040 ------- 0 4.8 14.0 117 3180
r 1.485547 0 14 tcp 1040 ------- 0 4.8 14.0 118 3260
r 1.486379 0 14 tcp 1040 ------- 0 4.8 14.0 119 3262
r 1.487211 0 14 tcp 1040 ------- 0 4.8 14.0 120 3264
r 1.488043 0 14 tcp 1040 ------- 0 4.8 14.0 121 3266
r 1.527147 0 14 tcp 1040 ------- 0 4.8 14.0 122 3353
r 1.527979 0 14 tcp 1040 ------- 0 4.8 14.0 123 3354
r 1.528811 0 14 tcp 1040 ------- 0 4.8 14.0 124 3356
r 1.529643 0 14 tcp 1040 ------- 0 4.8 14.0 125 3358
r 1.530475 0 14 tcp 1040 ------- 0 4.8 14.0 126 3360
r 1.577067 0 14 tcp 1040 ------- 0 4.8 14.0 127 3463
r 1.577899 0 14 tcp 1040 ------- 0 4.8 14.0 128 3465
r 1.578731 0 14 tcp 1040 ------- 0 4.8 14.0 129 3466
r 1.579563 0 14 tcp 1040 ------- 0 4.8 14.0 130 3468
r 1.580395 0 14 tcp 1040 ------- 0 4.8 14.0 131 3470
r 1.581227 0 14 tcp 1040 ------- 0 4.8 14.0 132 3472
r 1.634475 0 14 tcp 1040 ------- 0 4.8 14.0 133 3592
r 1.635307 0 14 tcp 1040 ------- 0 4.8 14.0 134 3594
r 1.636139 0 14 tcp 1040 ------- 0 4.8 14.0 135 3596
r 1.636971 0 14 tcp 1040 ------- 0 4.8 14.0 136 3598
r 1.637803 0 14 tcp 1040 ------- 0 4.8 14.0 137 3599
r 1.638635 0 14 tcp 1040 ------- 0 4.8 14.0 138 3601
r 1.639467 0 14 tcp 1040 ------- 0 4.8 14.0 139 3603
r 1.699371 0 14 tcp 1040 ------- 0 4.8 14.0 140 3740
r 1.700203 0 14 tcp 1040 ------- 0 4.8 14.0 141 3742
r 1.701035 0 14 tcp 1040 ------- 0 4.8 14.0 142 3744
r 1.701867 0 14 tcp 1040 ------- 0 4.8 14.0 143 3746
r 1.702699 0 14 tcp 1040 ------- 0 4.8 14.0 144 3748
r 1.703531 0 14 tcp 1040 ------- 0 4.8 14.0 146 3751
r 1.704363 0 14 tcp 1040 ------- 0 4.8 14.0 147 3753
r 1.764267 0 14 tcp 1040 ------- 0 4.8 14.0 148 3905
r 1.765099 0 14 tcp 1040 ------- 0 4.8 14.0 149 3907
r 1.765931 0 14 tcp 1040 ------- 0 4.8 14.0 150 3909
r 1.766763 0 14 tcp 1040 ------- 0 4.8 14.0 151 3911
r 1.767595 0 14 tcp 1040 ------- 0 4.8 14.0 152 3913
r 1.768427 0 14 tcp 1040 ------- 0 4.8 14.0 153 3915
r 1.769259 0 14 tcp 1040 ------- 0 4.8 14.0 154 3917
r 1.823339 0 14 tcp 1040 ---A--- 0 4.8 14.0 145 4054
r 1.8483 0 14 tcp 1040 ------- 0 4.8 14.0 155 4146
r 1.849132 0 14 tcp 1040 ------- 0 4.8 14.0 156 4147
r 1.874093 0 14 tcp 1040 ------- 0 4.8 14.0 157 4189
r 1.874925 0 14 tcp 1040 ------- 0 4.8 14.0 158 4190
r 1.875757 0 14 tcp 1040 ------- 0 4.8 14.0 159 4192
r 1.876589 0 14 tcp 1040 ------- 0 4.8 14.0 160 4193
r 1.907373 0 14 tcp 1040 ------- 0 4.8 14.0 161 4253
r 1.908205 0 14 tcp 1040 ------- 0 4.8 14.0 162 4255
r 1.909037 0 14 tcp 1040 ------- 0 4.8 14.0 163 4257
r 1.909869 0 14 tcp 1040 ------- 0 4.8 14.0 164 4259
r 1.945645 0 14 tcp 1040 ------- 0 4.8 14.0 165 4339
r 1.946477 0 14 tcp 1040 ------- 0 4.8 14.0 166 4340
r 1.947309 0 14 tcp 1040 ------- 0 4.8 14.0 167 4342
r 1.948141 0 14 tcp 1040 ------- 0 4.8 14.0 168 4344
r 1.948973 0 14 tcp 1040 ------- 0 4.8 14.0 169 4346
r 1.991405 0 14 tcp 1040 ------- 0 4.8 14.0 170 4440
r 1.992237 0 14 tcp 1040 ------- 0 4.8 14.0 171 4442
r 1.993069 0 14 tcp 1040 ------- 0 4.8 14.0 172 4443
r 1.993901 0 14 tcp 1040 ------- 0 4.8 14.0 173 4445
r 1.994733 0 14 tcp 1040 ------- 0 4.8 14.0 174 4447
r 1.995565 0 14 tcp 1040 ------- 0 4.8 14.0 175 4449
r 2.045485 0 14 tcp 1040 ------- 0 4.8 14.0 176 4560
r 2.046317 0 14 tcp 1040 ------- 0 4.8 14.0 177 4562
r 2.047149 0 14 tcp 1040 ------- 0 4.8 14.0 178 4564
r 2.047981 0 14 tcp 1040 ------- 0 4.8 14.0 179 4566
r 2.048813 0 14 tcp 1040 ------- 0 4.8 14.0 180 4567
r 2.049645 0 14 tcp 1040 ------- 0 4.8 14.0 181 4569
r 2.050477 0 14 tcp 1040 ------- 0 4.8 14.0 182 4571
r 2.107885 0 14 tcp 1040 ------- 0 4.8 14.0 183 4700
r 2.108717 0 14 tcp 1040 ------- 0 4.8 14.0 184 4702
r 2.109549 0 14 tcp 1040 ------- 0 4.8 14.0 185 4704
r 2.110381 0 14 tcp 1040 ------- 0 4.8 14.0 186 4706
r 2.111213 0 14 tcp 1040 ------- 0 4.8 14.0 187 4708
r 2.112045 0 14 tcp 1040 ------- 0 4.8 14.0 188 4709
r 2.112877 0 14 tcp 1040 ------- 0 4.8 14.0 189 4711
r 2.113709 0 14 tcp 1040 ------- 0 4.8 14.0 190 4713
r 2.172781 0 14 tcp 1040 ------- 0 4.8 14.0 191 4860
r 2.173613 0 14 tcp 1040 ------- 0 4.8 14.0 192 4862
r 2.174445 0 14 tcp 1040 ------- 0 4.8 14.0 193 4864
r 2.175277 0 14 tcp 1040 ------- 0 4.8 14.0 194 4866
r 2.176109 0 14 tcp 1040 ------- 0 4.8 14.0 195 4868
r 2.176941 0 14 tcp 1040 ------- 0 4.8 14.0 196 4870
r 2.177773 0 14 tcp 1040 ------- 0 4.8 14.0 197 4872
r 2.178605 0 14 tcp 1040 ------- 0 4.8 14.0 199 4875
r 2.236845 0 14 tcp 1040 ------- 0 4.8 14.0 200 5018
r 2.237677 0 14 tcp 1040 ------- 0 4.8 14.0 201 5020
r 2.238509 0 14 tcp 1040 ------- 0 4.8 14.0 202 5022
r 2.239341 0 14 tcp 1040 ------- 0 4.8 14.0 203 5024
r 2.240173 0 14 tcp 1040 ------- 0 4.8 14.0 204 5026
r 2.241005 0 14 tcp 1040 ------- 0 4.8 14.0 205 5028
r 2.241837 0 14 tcp 1040 ------- 0 4.8 14.0 206 5030
r 2.242669 0 14 tcp 1040 ------- 0 4.8 14.0 207 5032
r 2.267629 0 14 tcp 1040 ------- 0 4.8 14.0 208 5132
r 2.268461 0 14 tcp 1040 ---A--- 0 4.8 14.0 198 5134
r 2.295086 0 14 tcp 1040 ------- 0 4.8 14.0 209 5183
r 2.295918 0 14 tcp 1040 ------- 0 4.8 14.0 210 5184
r 2.329198 0 14 tcp 1040 ------- 0 4.8 14.0 211 5240
r 2.33003 0 14 tcp 1040 ------- 0 4.8 14.0 212 5241
r 2.330862 0 14 tcp 1040 ------- 0 4.8 14.0 213 5243
r 2.331694 0 14 tcp 1040 ------- 0 4.8 14.0 214 5244
r 2.36331 0 14 tcp 1040 ------- 0 4.8 14.0 215 5322
r 2.364142 0 14 tcp 1040 ------- 0 4.8 14.0 216 5324
r 2.364974 0 14 tcp 1040 ------- 0 4.8 14.0 217 5326
r 2.365806 0 14 tcp 1040 ------- 0 4.8 14.0 218 5328
r 2.403246 0 14 tcp 1040 ------- 0 4.8 14.0 219 5411
r 2.404078 0 14 tcp 1040 ------- 0 4.8 14.0 220 5412
r 2.40491 0 14 tcp 1040 ------- 0 4.8 14.0 221 5414
r 2.405742 0 14 tcp 1040 ------- 0 4.8 14.0 222 5416
r 2.406574 0 14 tcp 1040 ------- 0 4.8 14.0 223 5418
r 2.451502 0 14 tcp 1040 ------- 0 4.8 14.0 224 5517
r 2.452334 0 14 tcp 1040 ------- 0 4.8 14.0 225 5519
r 2.453166 0 14 tcp 1040 ------- 0 4.8 14.0 226 5520
r 2.453998 0 14 tcp 1040 ------- 0 4.8 14.0 227 5522
r 2.45483 0 14 tcp 1040 ------- 0 4.8 14.0 228 5524
r 2.455662 0 14 tcp 1040 ------- 0 4.8 14.0 229 5526
r 2.508078 0 14 tcp 1040 ------- 0 4.8 14.0 230 5643
r 2.50891 0 14 tcp 1040 ------- 0 4.8 14.0 231 5645
r 2.509742 0 14 tcp 1040 ------- 0 4.8 14.0 232 5647
r 2.510574 0 14 tcp 1040 ------- 0 4.8 14.0 233 5649
r 2.511406 0 14 tcp 1040 ------- 0 4.8 14.0 234 5650
r 2.512238 0 14 tcp 1040 ------- 0 4.8 14.0 235 5652
r 2.51307 0 14 tcp 1040 ------- 0 4.8 14.0 236 5654
r 2.572974 0 14 tcp 1040 ------- 0 4.8 14.0 237 5789
r 2.573806 0 14 tcp 1040 ------- 0 4.8 14.0 238 5791
r 2.574638 0 14 tcp 1040 ------- 0 4.8 14.0 239 5793
r 2.57547 0 14 tcp 1040 ------- 0 4.8 14.0 240 5795
r 2.576302 0 14 tcp 1040 ------- 0 4.8 14.0 241 5797
r 2.577134 0 14 tcp 1040 ------- 0 4.8 14.0 243 5800
r 2.577966 0 14 tcp 1040 ------- 0 4.8 14.0 244 5802
r 2.63787 0 14 tcp 1040 ------- 0 4.8 14.0 245 5955
r 2.638702 0 14 tcp 1040 ------- 0 4.8 14.0 246 5957
r 2.639534 0 14 tcp 1040 ------- 0 4.8 14.0 247 5959
r 2.640366 0 14 tcp 1040 ------- 0 4.8 14.0 248 5961
r 2.641198 0 14 tcp 1040 ------- 0 4.8 14.0 249 5963
r 2.64203 0 14 tcp 1040 ------- 0 4.8 14.0 250 5965
r 2.642862 0 14 tcp 1040 ------- 0 4.8 14.0 251 5967
r 2.702766 0 14 tcp 1040 ---A--- 0 4.8 14.0 242 6111
r 2.726895 0 14 tcp 1040 ------- 0 4.8 14.0 252 6206
r 2.727727 0 14 tcp 1040 ------- 0 4.8 14.0 253 6207
r 2.751024 0 14 tcp 1040 ------- 0 4.8 14.0 254 6243
r 2.751856 0 14 tcp 1040 ------- 0 4.8 14.0 255 6244
r 2.752688 0 14 tcp 1040 ------- 0 4.8 14.0 256 6246
r 2.75352 0 14 tcp 1040 ------- 0 4.8 14.0 257 6247
r 2.784304 0 14 tcp 1040 ------- 0 4.8 14.0 258 6303
r 2.785136 0 14 tcp 1040 ------- 0 4.8 14.0 259 6305
r 2.785968 0 14 tcp 1040 ------- 0 4.8 14.0 260 6307
r 2.7868 0 14 tcp 1040 ------- 0 4.8 14.0 261 6309
r 2.818416 0 14 tcp 1040 ------- 0 4.8 14.0 262 6384
r 2.819248 0 14 tcp 1040 ------- 0 4.8 14.0 263 6385
r 2.82008 0 14 tcp 1040 ------- 0 4.8 14.0 264 6387
r 2.820912 0 14 tcp 1040 ------- 0 4.8 14.0 265 6389
r 2.821744 0 14 tcp 1040 ------- 0 4.8 14.0 266 6391
r 2.860848 0 14 tcp 1040 ------- 0 4.8 14.0 267 6476
r 2.86168 0 14 tcp 1040 ------- 0 4.8 14.0 268 6478
r 2.862512 0 14 tcp 1040 ------- 0 4.8 14.0 269 6479
r 2.863344 0 14 tcp 1040 ------- 0 4.8 14.0 270 6481
r 2.864176 0 14 tcp 1040 ------- 0 4.8 14.0 271 6483
r 2.865008 0 14 tcp 1040 ------- 0 4.8 14.0 272 6485
r 2.9116 0 14 tcp 1040 ------- 0 4.8 14.0 273 6588
r 2.912432 0 14 tcp 1040 ------- 0 4.8 14.0 274 6590
r 2.913264 0 14 tcp 1040 ------- 0 4.8 14.0 275 6592
r 2.914096 0 14 tcp 1040 ------- 0 4.8 14.0 276 6594
r 2.914928 0 14 tcp 1040 ------- 0 4.8 14.0 277 6595
r 2.91576 0 14 tcp 1040 ------- 0 4.8 14.0 278 6597
r 2.916592 0 14 tcp 1040 ------- 0 4.8 14.0 279 6599
r 2.970672 0 14 tcp 1040 ------- 0 4.8 14.0 280 6720
r 2.971504 0 14 tcp 1040 ------- 0 4.8 14.0 281 6722
r 2.972336 0 14 tcp 1040 ------- 0 4.8 14.0 282 6724
r 2.973168 0 14 tcp 1040 ------- 0 4.8 14.0 283 6726
r 2.974 0 14 tcp 1040 ------- 0 4.8 14.0 284 6728
r 2.974832 0 14 tcp 1040 ------- 0 4.8 14.0 285 6729
r 2.975664 0 14 tcp 1040 ------- 0 4.8 14.0 286 6731
r 2.976496 0 14 tcp 1040 ------- 0 4.8 14.0 287 6733
r 3.035568 0 14 tcp 1040 ------- 0 4.8 14.0 288 6872
r 3.0364 0 14 tcp 1040 ------- 0 4.8 14.0 289 6874
r 3.037232 0 14 tcp 1040 ------- 0 4.8 14.0 290 6876
r 3.038064 0 14 tcp 1040 ------- 0 4.8 14.0 291 6878
r 3.038896 0 14 tcp 1040 ------- 0 4.8 14.0 292 6880
r 3.039728 0 14 tcp 1040 ------- 0 4.8 14.0 293 6882
r 3.04056 0 14 tcp 1040 ------- 0 4.8 14.0 294 6884
r 3.041392 0 14 tcp 1040 ------- 0 4.8 14.0 296 6887
r 3.100464 0 14 tcp 1040 ------- 0 4.8 14.0 297 7080
r 3.101296 0 14 tcp 1040 ------- 0 4.8 14.0 298 7081
r 3.102128 0 14 tcp 1040 ------- 0 4.8 14.0 299 7082
r 3.10296 0 14 tcp 1040 ------- 0 4.8 14.0 300 7083
r 3.103792 0 14 tcp 1040 ------- 0 4.8 14.0 301 7084
r 3.104624 0 14 tcp 1040 ------- 0 4.8 14.0 302 7085
r 3.105456 0 14 tcp 1040 ------- 0 4.8 14.0 303 7087
r 3.106288 0 14 tcp 1040 ------- 0 4.8 14.0 304 7089
r 3.151216 0 14 tcp 1040 ------- 0 4.8 14.0 305 7276
r 3.152048 0 14 tcp 1040 ---A--- 0 4.8 14.0 295 7278
r 3.181879 0 14 tcp 1040 ------- 0 4.8 14.0 306 7409
r 3.182711 0 14 tcp 1040 ------- 0 4.8 14.0 307 7410
r 3.217817 0 14 tcp 1040 ------- 0 4.8 14.0 308 7493
r 3.218649 0 14 tcp 1040 ------- 0 4.8 14.0 309 7494
r 3.219481 0 14 tcp 1040 ------- 0 4.8 14.0 310 7495
r 3.220313 0 14 tcp 1040 ------- 0 4.8 14.0 311 7496
r 3.258585 0 14 tcp 1040 ------- 0 4.8 14.0 312 7611
r 3.259417 0 14 tcp 1040 ------- 0 4.8 14.0 313 7612
r 3.260249 0 14 tcp 1040 ------- 0 4.8 14.0 314 7613
r 3.261081 0 14 tcp 1040 ------- 0 4.8 14.0 315 7614
r 3.302681 0 14 tcp 1040 ------- 0 4.8 14.0 316 7742
r 3.303513 0 14 tcp 1040 ------- 0 4.8 14.0 317 7743
r 3.304345 0 14 tcp 1040 ------- 0 4.8 14.0 318 7745
r 3.305177 0 14 tcp 1040 ------- 0 4.8 14.0 319 7747
r 3.306009 0 14 tcp 1040 ------- 0 4.8 14.0 320 7749
r 3.355097 0 14 tcp 1040 ------- 0 4.8 14.0 321 7884
r 3.355929 0 14 tcp 1040 ------- 0 4.8 14.0 322 7885
r 3.356761 0 14 tcp 1040 ------- 0 4.8 14.0 323 7886
r 3.357593 0 14 tcp 1040 ------- 0 4.8 14.0 324 7887
r 3.358425 0 14 tcp 1040 ------- 0 4.8 14.0 325 7888
r 3.359257 0 14 tcp 1040 ------- 0 4.8 14.0 326 7889
r 3.415833 0 14 tcp 1040 ------- 0 4.8 14.0 327 8061
r 3.416665 0 14 tcp 1040 ------- 0 4.8 14.0 328 8062
r 3.417497 0 14 tcp 1040 ------- 0 4.8 14.0 329 8063
r 3.418329 0 14 tcp 1040 ------- 0 4.8 14.0 330 8064
r 3.419161 0 14 tcp 1040 ------- 0 4.8 14.0 331 8065
r 3.419993 0 14 tcp 1040 ------- 0 4.8 14.0 332 8066
r 3.420825 0 14 tcp 1040 ------- 0 4.8 14.0 333 8067
r 3.483225 0 14 tcp 1040 ------- 0 4.8 14.0 334 8250
r 3.484057 0 14 tcp 1040 ------- 0 4.8 14.0 337 8276
r 3.484889 0 14 tcp 1040 ------- 0 4.8 14.0 340 8281
r 3.485721 0 14 tcp 1040 ------- 0 4.8 14.0 341 8283
r 3.548121 0 14 tcp 1040 ------- 0 4.8 14.0 342 8494
r 3.548953 0 14 tcp 1040 ------- 0 4.8 14.0 343 8495
r 3.549785 0 14 tcp 1040 ------- 0 4.8 14.0 344 8496
r 3.550617 0 14 tcp 1040 ---A--- 0 4.8 14.0 335 8497
r 3.602201 0 14 tcp 1040 ------- 0 4.8 14.0 336 8668
r 3.603033 0 14 tcp 1040 ------- 0 4.8 14.0 337 8669
r 3.632985 0 14 tcp 1040 ------- 0 4.8 14.0 338 8807
r 3.633817 0 14 tcp 1040 ------- 0 4.8 14.0 339 8808
r 3.634649 0 14 tcp 1040 ------- 0 4.8 14.0 340 8809
r 3.635481 0 14 tcp 1040 ------- 0 4.8 14.0 341 8811
r 3.676502 0 14 tcp 1040 ------- 0 4.8 14.0 342 8933
r 3.677334 0 14 tcp 1040 ------- 0 4.8 14.0 345 8935
r 3.678166 0 14 tcp 1040 ------- 0 4.8 14.0 346 8936
r 3.678998 0 14 tcp 1040 ------- 0 4.8 14.0 347 8937
r 3.67983 0 14 tcp 1040 ------- 0 4.8 14.0 348 8938
r 3.680662 0 14 tcp 1040 ------- 0 4.8 14.0 349 8940
r 3.681494 0 14 tcp 1040 ------- 0 4.8 14.0 350 8942
r 3.728918 0 14 tcp 1040 ------- 0 4.8 14.0 351 9072
r 3.72975 0 14 tcp 1040 ------- 0 4.8 14.0 352 9073
r 3.730582 0 14 tcp 1040 ------- 0 4.8 14.0 353 9074
r 3.731414 0 14 tcp 1040 ------- 0 4.8 14.0 354 9076
r 3.732246 0 14 tcp 1040 ------- 0 4.8 14.0 355 9077
r 3.78383 0 14 tcp 1040 ------- 0 4.8 14.0 356 9243
r 3.784662 0 14 tcp 1040 ------- 0 4.8 14.0 357 9244
r 3.785494 0 14 tcp 1040 ------- 0 4.8 14.0 358 9245
r 3.786326 0 14 tcp 1040 ------- 0 4.8 14.0 359 9246
r 3.787158 0 14 tcp 1040 ------- 0 4.8 14.0 360 9247
r 3.78799 0 14 tcp 1040 ------- 0 4.8 14.0 361 9248
r 3.845398 0 14 tcp 1040 ------- 0 4.8 14.0 362 9421
r 3.84623 0 14 tcp 1040 ------- 0 4.8 14.0 363 9422
r 3.847062 0 14 tcp 1040 ------- 0 4.8 14.0 364 9423
r 3.847894 0 14 tcp 1040 ------- 0 4.8 14.0 365 9424
r 3.848726 0 14 tcp 1040 ------- 0 4.8 14.0 366 9425
r 3.849558 0 14 tcp 1040 ------- 0 4.8 14.0 367 9426
r 3.85039 0 14 tcp 1040 ------- 0 4.8 14.0 368 9427
r 3.911958 0 14 tcp 1040 ------- 0 4.8 14.0 369 9612
r 3.91279 0 14 tcp 1040 ------- 0 4.8 14.0 371 9636
r 3.913622 0 14 tcp 1040 ------- 0 4.8 14.0 373 9640
r 3.914454 0 14 tcp 1040 ------- 0 4.8 14.0 374 9642
r 3.915286 0 14 tcp 1040 ------- 0 4.8 14.0 376 9645
r 3.974358 0 14 tcp 1040 ------- 0 4.8 14.0 377 9848
r 3.97519 0 14 tcp 1040 ------- 0 4.8 14.0 378 9849
r 3.976022 0 14 tcp 1040 ------- 0 4.8 14.0 379 9850
r 3.976854 0 14 tcp 1040 ---A--- 0 4.8 14.0 370 9851
r 4.01679 0 14 tcp 1040 ------- 0 4.8 14.0 372 10004
r 4.017622 0 14 tcp 1040 ------- 0 4.8 14.0 373 10005
r 4.056494 0 14 tcp 1040 ------- 0 4.8 14.0 375 10133
r 4.057326 0 14 tcp 1040 ------- 0 4.8 14.0 376 10134
r 4.058158 0 14 tcp 1040 ------- 0 4.8 14.0 377 10135
r 4.05899 0 14 tcp 1040 ------- 0 4.8 14.0 378 10137
r 4.106414 0 14 tcp 1040 ------- 0 4.8 14.0 380 10263
r 4.107246 0 14 tcp 1040 ------- 0 4.8 14.0 381 10264
r 4.108078 0 14 tcp 1040 ------- 0 4.8 14.0 382 10265
r 4.10891 0 14 tcp 1040 ------- 0 4.8 14.0 383 10266
r 4.109742 0 14 tcp 1040 ------- 0 4.8 14.0 384 10267
r 4.110574 0 14 tcp 1040 ------- 0 4.8 14.0 385 10268
r 4.165486 0 14 tcp 1040 ------- 0 4.8 14.0 386 10438
r 4.166318 0 14 tcp 1040 ------- 0 4.8 14.0 387 10439
r 4.16715 0 14 tcp 1040 ------- 0 4.8 14.0 388 10440
r 4.167982 0 14 tcp 1040 ------- 0 4.8 14.0 389 10441
r 4.168814 0 14 tcp 1040 ------- 0 4.8 14.0 390 10442
r 4.22955 0 14 tcp 1040 ------- 0 4.8 14.0 391 10620
r 4.230382 0 14 tcp 1040 ------- 0 4.8 14.0 392 10622
r 4.231214 0 14 tcp 1040 ------- 0 4.8 14.0 393 10624
r 4.232046 0 14 tcp 1040 ------- 0 4.8 14.0 394 10646
r 4.232878 0 14 tcp 1040 ------- 0 4.8 14.0 395 10647
r 4.23371 0 14 tcp 1040 ------- 0 4.8 14.0 396 10649
r 4.294446 0 14 tcp 1040 ------- 0 4.8 14.0 397 10843
r 4.295278 0 14 tcp 1040 ------- 0 4.8 14.0 398 10845
r 4.29611 0 14 tcp 1040 ------- 0 4.8 14.0 399 10847
r 4.296942 0 14 tcp 1040 ------- 0 4.8 14.0 400 10849
r 4.297774 0 14 tcp 1040 ------- 0 4.8 14.0 401 10866
r 4.298606 0 14 tcp 1040 ------- 0 4.8 14.0 402 10867
r 4.299438 0 14 tcp 1040 ------- 0 4.8 14.0 403 10868
r 4.355182 0 14 tcp 1040 ------- 0 4.8 14.0 404 11043
r 4.356014 0 14 tcp 1040 ------- 0 4.8 14.0 405 11044
r 4.356846 0 14 tcp 1040 ------- 0 4.8 14.0 406 11045
r 4.357678 0 14 tcp 1040 ------- 0 4.8 14.0 407 11046
r 4.35851 0 14 tcp 1040 ------- 0 4.8 14.0 408 11047
r 4.359342 0 14 tcp 1040 ------- 0 4.8 14.0 409 11048
r 4.360174 0 14 tcp 1040 ------- 0 4.8 14.0 410 11050
r 4.361006 0 14 tcp 1040 ------- 0 4.8 14.0 411 11051
r 4.403438 0 14 tcp 1040 ------- 0 4.8 14.0 412 11229
r 4.40427 0 14 tcp 1040 ------- 0 4.8 14.0 413 11231
r 4.405102 0 14 tcp 1040 ------- 0 4.8 14.0 414 11233
r 4.405934 0 14 tcp 1040 ------- 0 4.8 14.0 415 11235
r 4.406766 0 14 tcp 1040 ------- 0 4.8 14.0 416 11237
r 4.407598 0 14 tcp 1040 ------- 0 4.8 14.0 417 11239
r 4.40843 0 14 tcp 1040 ------- 0 4.8 14.0 418 11241
r 4.409262 0 14 tcp 1040 ------- 0 4.8 14.0 419 11243
r 4.449198 0 14 tcp 1040 ------- 0 4.8 14.0 420 11365
r 4.45003 0 14 tcp 1040 ------- 0 4.8 14.0 421 11366
r 4.450862 0 14 tcp 1040 ------- 0 4.8 14.0 422 11367
r 4.451694 0 14 tcp 1040 ------- 0 4.8 14.0 423 11368
r 4.452526 0 14 tcp 1040 ------- 0 4.8 14.0 424 11369
r 4.453358 0 14 tcp 1040 ------- 0 4.8 14.0 425 11371
r 4.45419 0 14 tcp 1040 ------- 0 4.8 14.0 426 11373
r 4.455022 0 14 tcp 1040 ------- 0 4.8 14.0 427 11375
r 4.455854 0 14 tcp 1040 ------- 0 4.8 14.0 428 11397
r 4.505774 0 14 tcp 1040 ------- 0 4.8 14.0 429 11537
r 4.506606 0 14 tcp 1040 ------- 0 4.8 14.0 430 11538
r 4.507438 0 14 tcp 1040 ------- 0 4.8 14.0 431 11539
r 4.50827 0 14 tcp 1040 ------- 0 4.8 14.0 432 11540
r 4.509102 0 14 tcp 1040 ------- 0 4.8 14.0 433 11541
r 4.509934 0 14 tcp 1040 ------- 0 4.8 14.0 434 11542
r 4.510766 0 14 tcp 1040 ------- 0 4.8 14.0 435 11543
r 4.511598 0 14 tcp 1040 ------- 0 4.8 14.0 436 11544
r 4.51243 0 14 tcp 1040 ------- 0 4.8 14.0 437 11545
r 4.513262 0 14 tcp 1040 ------- 0 4.8 14.0 438 11546
r 4.571502 0 14 tcp 1040 ------- 0 4.8 14.0 439 11724
r 4.572334 0 14 tcp 1040 ------- 0 4.8 14.0 440 11725
r 4.573166 0 14 tcp 1040 ------- 0 4.8 14.0 441 11726
r 4.573998 0 14 tcp 1040 ------- 0 4.8 14.0 442 11727
r 4.57483 0 14 tcp 1040 ------- 0 4.8 14.0 443 11728
r 4.575662 0 14 tcp 1040 ------- 0 4.8 14.0 444 11729
r 4.576494 0 14 tcp 1040 ------- 0 4.8 14.0 445 11730
r 4.577326 0 14 tcp 1040 ------- 0 4.8 14.0 446 11731
r 4.578158 0 14 tcp 1040 ------- 0 4.8 14.0 447 11732
r 4.57899 0 14 tcp 1040 ------- 0 4.8 14.0 448 11733
r 4.579822 0 14 tcp 1040 ------- 0 4.8 14.0 449 11734
r 4.636398 0 14 tcp 1040 ------- 0 4.8 14.0 450 11938
r 4.63723 0 14 tcp 1040 ------- 0 4.8 14.0 451 11940
r 4.638062 0 14 tcp 1040 ------- 0 4.8 14.0 452 11942
r 4.638894 0 14 tcp 1040 ------- 0 4.8 14.0 453 11944
r 4.639726 0 14 tcp 1040 ------- 0 4.8 14.0 454 11946
r 4.640558 0 14 tcp 1040 ------- 0 4.8 14.0 456 11949
r 4.64139 0 14 tcp 1040 ------- 0 4.8 14.0 457 11951
r 4.642222 0 14 tcp 1040 ------- 0 4.8 14.0 458 11953
r 4.643054 0 14 tcp 1040 ------- 0 4.8 14.0 459 11955
r 4.643886 0 14 tcp 1040 ------- 0 4.8 14.0 460 11957
r 4.644718 0 14 tcp 1040 ------- 0 4.8 14.0 461 11959
r 4.696302 0 14 tcp 1040 ------- 0 4.8 14.0 462 12142
r 4.697134 0 14 tcp 1040 ------- 0 4.8 14.0 463 12143
r 4.697966 0 14 tcp 1040 ------- 0 4.8 14.0 464 12144
r 4.698798 0 14 tcp 1040 ------- 0 4.8 14.0 465 12145
r 4.69963 0 14 tcp 1040 ------- 0 4.8 14.0 466 12146
r 4.700462 0 14 tcp 1040 ------- 0 4.8 14.0 467 12147
r 4.701294 0 14 tcp 1040 ------- 0 4.8 14.0 468 12148
r 4.702126 0 14 tcp 1040 ---A--- 0 4.8 14.0 455 12149
r 4.754542 0 14 tcp 1040 ------- 0 4.8 14.0 469 12318
r 4.755374 0 14 tcp 1040 ------- 0 4.8 14.0 470 12319
r 4.813614 0 14 tcp 1040 ------- 0 4.8 14.0 471 12492
r 4.814446 0 14 tcp 1040 ------- 0 4.8 14.0 472 12493
r 4.815278 0 14 tcp 1040 ------- 0 4.8 14.0 473 12495
r 4.81611 0 14 tcp 1040 ------- 0 4.8 14.0 474 12496
r 4.87851 0 14 tcp 1040 ------- 0 4.8 14.0 475 12708
r 4.879342 0 14 tcp 1040 ------- 0 4.8 14.0 477 12711
r 4.880174 0 14 tcp 1040 ------- 0 4.8 14.0 479 12714
r 4.881006 0 14 tcp 1040 ------- 0 4.8 14.0 480 12716
r 4.942574 0 14 tcp 1040 ------- 0 4.8 14.0 481 12920
r 4.943406 0 14 tcp 1040 ------- 0 4.8 14.0 482 12921
r 4.944238 0 14 tcp 1040 ------- 0 4.8 14.0 483 12922
r 4.94507 0 14 tcp 1040 ---A--- 0 4.8 14.0 476 12923
r 4.989166 0 14 tcp 1040 ------- 0 4.8 14.0 478 13105
r 4.989998 0 14 tcp 1040 ------- 0 4.8 14.0 479 13106
r 5.022686 0 14 tcp 1040 ------- 0 4.8 14.0 484 13223
r 5.023518 0 14 tcp 1040 ------- 0 4.8 14.0 485 13224
r 5.02435 0 14 tcp 1040 ------- 0 4.8 14.0 486 13225
r 5.025182 0 14 tcp 1040 ------- 0 4.8 14.0 487 13226
r 5.063454 0 14 tcp 1040 ------- 0 4.8 14.0 488 13324
r 5.064286 0 14 tcp 1040 ------- 0 4.8 14.0 489 13326
r 5.065118 0 14 tcp 1040 ------- 0 4.8 14.0 490 13348
r 5.06595 0 14 tcp 1040 ------- 0 4.8 14.0 491 13349
r 5.115038 0 14 tcp 1040 ------- 0 4.8 14.0 492 13488
r 5.11587 0 14 tcp 1040 ------- 0 4.8 14.0 493 13489
r 5.116702 0 14 tcp 1040 ------- 0 4.8 14.0 494 13490
r 5.117534 0 14 tcp 1040 ------- 0 4.8 14.0 495 13491
r 5.118366 0 14 tcp 1040 ------- 0 4.8 14.0 496 13492
r 5.174942 0 14 tcp 1040 ------- 0 4.8 14.0 497 13648
r 5.175774 0 14 tcp 1040 ------- 0 4.8 14.0 498 13650
r 5.176606 0 14 tcp 1040 ------- 0 4.8 14.0 499 13667
r 5.177438 0 14 tcp 1040 ------- 0 4.8 14.0 500 13668
r 5.17827 0 14 tcp 1040 ------- 0 4.8 14.0 501 13669
r 5.24067 0 14 tcp 1040 ------- 0 4.8 14.0 502 13849
r 5.241502 0 14 tcp 1040 ------- 0 4.8 14.0 503 13850
r 5.242334 0 14 tcp 1040 ------- 0 4.8 14.0 504 13851
r 5.243166 0 14 tcp 1040 ------- 0 4.8 14.0 505 13852
r 5.243998 0 14 tcp 1040 ------- 0 4.8 14.0 506 13853
r 5.24483 0 14 tcp 1040 ------- 0 4.8 14.0 507 13854
r 5.305566 0 14 tcp 1040 ------- 0 4.8 14.0 508 14065
r 5.306398 0 14 tcp 1040 ------- 0 4.8 14.0 509 14067
r 5.30723 0 14 tcp 1040 ------- 0 4.8 14.0 511 14070
r 5.308062 0 14 tcp 1040 ------- 0 4.8 14.0 512 14072
r 5.308894 0 14 tcp 1040 ------- 0 4.8 14.0 513 14074
r 5.309726 0 14 tcp 1040 ------- 0 4.8 14.0 514 14076
r 5.36547 0 14 tcp 1040 ------- 0 4.8 14.0 515 14270
r 5.366302 0 14 tcp 1040 ------- 0 4.8 14.0 516 14271
r 5.367134 0 14 tcp 1040 ------- 0 4.8 14.0 517 14272
r 5.367966 0 14 tcp 1040 ------- 0 4.8 14.0 518 14273
r 5.368798 0 14 tcp 1040 ---A--- 0 4.8 14.0 510 14274
r 5.417054 0 14 tcp 1040 ------- 0 4.8 14.0 519 14437
r 5.417886 0 14 tcp 1040 ------- 0 4.8 14.0 520 14438
r 5.471966 0 14 tcp 1040 ------- 0 4.8 14.0 521 14607
r 5.472798 0 14 tcp 1040 ------- 0 4.8 14.0 522 14608
r 5.47363 0 14 tcp 1040 ------- 0 4.8 14.0 523 14609
r 5.536862 0 14 tcp 1040 ------- 0 4.8 14.0 524 14789
r 5.537694 0 14 tcp 1040 ------- 0 4.8 14.0 525 14790
r 5.538526 0 14 tcp 1040 ------- 0 4.8 14.0 526 14791
r 5.539358 0 14 tcp 1040 ------- 0 4.8 14.0 527 14792
r 5.601758 0 14 tcp 1040 ------- 0 4.8 14.0 528 15001
r 5.60259 0 14 tcp 1040 ------- 0 4.8 14.0 529 15003
r 5.603422 0 14 tcp 1040 ------- 0 4.8 14.0 530 15005
r 5.604254 0 14 tcp 1040 ------- 0 4.8 14.0 531 15007
r 5.667486 0 14 tcp 1040 ------- 0 4.8 14.0 533 15216
r 5.668318 0 14 tcp 1040 ------- 0 4.8 14.0 534 15217
r 5.66915 0 14 tcp 1040 ------- 0 4.8 14.0 535 15218
r 5.669982 0 14 tcp 1040 ------- 0 4.8 14.0 536 15219
r 5.724062 0 14 tcp 1040 ------- 0 4.8 14.0 537 15414
r 5.724894 0 14 tcp 1040 ------- 0 4.8 14.0 538 15416
r 5.725726 0 14 tcp 1040 ---A--- 0 4.8 14.0 532 15418
r 5.75235 0 14 tcp 1040 ------- 0 4.8 14.0 539 15558
r 5.753182 0 14 tcp 1040 ------- 0 4.8 14.0 540 15559
r 5.794238 0 14 tcp 1040 ------- 0 4.8 14.0 541 15644
r 5.79507 0 14 tcp 1040 ------- 0 4.8 14.0 542 15645
r 5.835329 0 14 tcp 1040 ------- 0 4.8 14.0 543 15762
r 5.836161 0 14 tcp 1040 ------- 0 4.8 14.0 544 15763
r 5.836993 0 14 tcp 1040 ------- 0 4.8 14.0 545 15764
r 5.886913 0 14 tcp 1040 ------- 0 4.8 14.0 546 15908
r 5.887745 0 14 tcp 1040 ------- 0 4.8 14.0 547 15910
r 5.888577 0 14 tcp 1040 ------- 0 4.8 14.0 548 15911
r 5.889409 0 14 tcp 1040 ------- 0 4.8 14.0 549 15913