r 2.814876 0 14 tcp 40 ------- 0 4.8 14.0 0 3154
r 2.839005 0 14 tcp 1040 ------- 0 4.8 14.0 1 3193
r 2.839837 0 14 tcp 1040 ------- 0 4.8 14.0 2 3194
r 2.863134 0 14 tcp 1040 ------- 0 4.8 14.0 3 3237
r 2.863966 0 14 tcp 1040 ------- 0 4.8 14.0 4 3238
r 2.864798 0 14 tcp 1040 ------- 0 4.8 14.0 5 3240
r 2.86563 0 14 tcp 1040 ------- 0 4.8 14.0 6 3241
r 2.887263 0 14 tcp 1040 ------- 0 4.8 14.0 7 3285
r 2.888095 0 14 tcp 1040 ------- 0 4.8 14.0 8 3286
r 2.888927 0 14 tcp 1040 ------- 0 4.8 14.0 9 3288
r 2.889759 0 14 tcp 1040 ------- 0 4.8 14.0 10 3289
r 2.890591 0 14 tcp 1040 ------- 0 4.8 14.0 11 3291
r 2.891423 0 14 tcp 1040 ------- 0 4.8 14.0 12 3292
r 2.892255 0 14 tcp 1040 ------- 0 4.8 14.0 13 3294
r 2.893087 0 14 tcp 1040 ------- 0 4.8 14.0 14 3295
r 2.911392 0 14 tcp 1040 ------- 0 4.8 14.0 15 3327
r 2.912224 0 14 tcp 1040 ------- 0 4.8 14.0 16 3328
r 2.913056 0 14 tcp 1040 ------- 0 4.8 14.0 17 3330
r 2.913888 0 14 tcp 1040 ------- 0 4.8 14.0 18 3331
r 2.91472 0 14 tcp 1040 ------- 0 4.8 14.0 19 3332
r 2.915552 0 14 tcp 1040 ------- 0 4.8 14.0 20 3333
r 2.916384 0 14 tcp 1040 ------- 0 4.8 14.0 21 3334
r 2.917216 0 14 tcp 1040 ------- 0 4.8 14.0 22 3335
r 2.918048 0 14 tcp 1040 ------- 0 4.8 14.0 23 3336
r 2.91888 0 14 tcp 1040 ------- 0 4.8 14.0 24 3337
r 2.919712 0 14 tcp 1040 ------- 0 4.8 14.0 25 3338
r 2.920544 0 14 tcp 1040 ------- 0 4.8 14.0 26 3339
r 2.921376 0 14 tcp 1040 ------- 0 4.8 14.0 27 3340
r 2.922208 0 14 tcp 1040 ------- 0 4.8 14.0 28 3341
r 2.92304 0 14 tcp 1040 ------- 0 4.8 14.0 29 3342
r 2.923872 0 14 tcp 1040 ------- 0 4.8 14.0 30 3343
