r 0.11111 0 7 tcp 40 ------- 0 4.1 7.0 0 1
r 0.136871 0 7 tcp 1040 ------- 0 4.1 7.0 1 12
r 0.137703 0 7 tcp 1040 ------- 0 4.1 7.0 2 13
r 0.162664 0 7 tcp 1040 ------- 0 4.1 7.0 3 34
r 0.163496 0 7 tcp 1040 ------- 0 4.1 7.0 4 35
r 0.164328 0 7 tcp 1040 ------- 0 4.1 7.0 5 36
r 0.16516 0 7 tcp 1040 ------- 0 4.1 7.0 6 37
r 0.190121 0 7 tcp 1040 ------- 0 4.1 7.0 7 76
r 0.190953 0 7 tcp 1040 ------- 0 4.1 7.0 8 77
r 0.191785 0 7 tcp 1040 ------- 0 4.1 7.0 9 79
r 0.192617 0 7 tcp 1040 ------- 0 4.1 7.0 10 80
r 0.193449 0 7 tcp 1040 ------- 0 4.1 7.0 11 82
r 0.194281 0 7 tcp 1040 ------- 0 4.1 7.0 12 83
r 0.195113 0 7 tcp 1040 ------- 0 4.1 7.0 13 84
r 0.195945 0 7 tcp 1040 ------- 0 4.1 7.0 14 85
r 0.230057 0 7 tcp 1040 ------- 0 4.1 7.0 15 148
r 0.230889 0 7 tcp 1040 ------- 0 4.1 7.0 16 149
r 0.231721 0 7 tcp 1040 ------- 0 4.1 7.0 17 151
r 0.232553 0 7 tcp 1040 ------- 0 4.1 7.0 18 152
r 0.233385 0 7 tcp 1040 ------- 0 4.1 7.0 19 154
r 0.234217 0 7 tcp 1040 ------- 0 4.1 7.0 20 155
r 0.235049 0 7 tcp 1040 ------- 0 4.1 7.0 21 157
r 0.235881 0 7 tcp 1040 ------- 0 4.1 7.0 22 158
r 0.236713 0 7 tcp 1040 ------- 0 4.1 7.0 23 160
r 0.237545 0 7 tcp 1040 ------- 0 4.1 7.0 24 161
r 0.238377 0 7 tcp 1040 ------- 0 4.1 7.0 25 163
r 0.239209 0 7 tcp 1040 ------- 0 4.1 7.0 26 164
r 0.240041 0 7 tcp 1040 ------- 0 4.1 7.0 27 166
r 0.240873 0 7 tcp 1040 ------- 0 4.1 7.0 28 167
r 0.241705 0 7 tcp 1040 ------- 0 4.1 7.0 29 169
r 0.242537 0 7 tcp 1040 ------- 0 4.1 7.0 30 170
r 0.294953 0 7 tcp 1040 ------- 0 4.1 7.0 31 280
r 0.295785 0 7 tcp 1040 ------- 0 4.1 7.0 33 283
r 0.296617 0 7 tcp 1040 ------- 0 4.1 7.0 35 286
r 0.297449 0 7 tcp 1040 ------- 0 4.1 7.0 37 289
r 0.298281 0 7 tcp 1040 ------- 0 4.1 7.0 39 292
r 0.299113 0 7 tcp 1040 ------- 0 4.1 7.0 40 294
r 0.299945 0 7 tcp 1040 ------- 0 4.1 7.0 41 296
r 0.300777 0 7 tcp 1040 ------- 0 4.1 7.0 42 298
r 0.301609 0 7 tcp 1040 ------- 0 4.1 7.0 43 300
r 0.302441 0 7 tcp 1040 ------- 0 4.1 7.0 44 302
r 0.303273 0 7 tcp 1040 ------- 0 4.1 7.0 45 304
r 0.304105 0 7 tcp 1040 ------- 0 4.1 7.0 46 306
r 0.304937 0 7 tcp 1040 ------- 0 4.1 7.0 47 308
r 0.305769 0 7 tcp 1040 ------- 0 4.1 7.0 48 310
r 0.306601 0 7 tcp 1040 ------- 0 4.1 7.0 49 312
r 0.307433 0 7 tcp 1040 ------- 0 4.1 7.0 50 314
r 0.347369 0 7 tcp 1040 ------- 0 4.1 7.0 51 437
r 0.348201 0 7 tcp 1040 ---A--- 0 4.1 7.0 32 441
r 0.37233 0 7 tcp 1040 ------- 0 4.1 7.0 34 501
r 0.373162 0 7 tcp 1040 ------- 0 4.1 7.0 35 502
r 0.398122 0 7 tcp 1040 ------- 0 4.1 7.0 36 522
r 0.398954 0 7 tcp 1040 ------- 0 4.1 7.0 37 523
r 0.399786 0 7 tcp 1040 ------- 0 4.1 7.0 38 524
r 0.400618 0 7 tcp 1040 ------- 0 4.1 7.0 39 526
r 0.426411 0 7 tcp 1040 ------- 0 4.1 7.0 40 567
r 0.427243 0 7 tcp 1040 ------- 0 4.1 7.0 41 568
r 0.428075 0 7 tcp 1040 ------- 0 4.1 7.0 42 570
r 0.428907 0 7 tcp 1040 ------- 0 4.1 7.0 52 572
r 0.429739 0 7 tcp 1040 ------- 0 4.1 7.0 53 573
r 0.430571 0 7 tcp 1040 ------- 0 4.1 7.0 54 574
r 0.431403 0 7 tcp 1040 ------- 0 4.1 7.0 55 575
r 0.432235 0 7 tcp 1040 ------- 0 4.1 7.0 56 576
r 0.433067 0 7 tcp 1040 ------- 0 4.1 7.0 57 577
r 0.462187 0 7 tcp 1040 ------- 0 4.1 7.0 58 635
r 0.463019 0 7 tcp 1040 ------- 0 4.1 7.0 59 640
r 0.463851 0 7 tcp 1040 ------- 0 4.1 7.0 60 641
r 0.464683 0 7 tcp 1040 ------- 0 4.1 7.0 61 643
r 0.465515 0 7 tcp 1040 ------- 0 4.1 7.0 62 644
r 0.466347 0 7 tcp 1040 ------- 0 4.1 7.0 63 646
r 0.467179 0 7 tcp 1040 ------- 0 4.1 7.0 64 647
r 0.468011 0 7 tcp 1040 ------- 0 4.1 7.0 65 649
r 0.468843 0 7 tcp 1040 ------- 0 4.1 7.0 66 650
r 0.469675 0 7 tcp 1040 ------- 0 4.1 7.0 67 652
r 0.506283 0 7 tcp 1040 ------- 0 4.1 7.0 68 731
r 0.507115 0 7 tcp 1040 ------- 0 4.1 7.0 69 733
r 0.507947 0 7 tcp 1040 ------- 0 4.1 7.0 70 735
r 0.508779 0 7 tcp 1040 ------- 0 4.1 7.0 71 737
r 0.509611 0 7 tcp 1040 ------- 0 4.1 7.0 72 739
r 0.510443 0 7 tcp 1040 ------- 0 4.1 7.0 73 741
r 0.511275 0 7 tcp 1040 ------- 0 4.1 7.0 74 743
r 0.512107 0 7 tcp 1040 ------- 0 4.1 7.0 75 745
r 0.512939 0 7 tcp 1040 ------- 0 4.1 7.0 76 747
r 0.513771 0 7 tcp 1040 ------- 0 4.1 7.0 77 749
r 0.514603 0 7 tcp 1040 ------- 0 4.1 7.0 78 750
r 0.552043 0 7 tcp 1040 ------- 0 4.1 7.0 79 839
r 0.552875 0 7 tcp 1040 ------- 0 4.1 7.0 80 841
r 0.553707 0 7 tcp 1040 ------- 0 4.1 7.0 81 843
r 0.554539 0 7 tcp 1040 ------- 0 4.1 7.0 82 845
r 0.555371 0 7 tcp 1040 ------- 0 4.1 7.0 83 847
r 0.556203 0 7 tcp 1040 ------- 0 4.1 7.0 84 849
r 0.557035 0 7 tcp 1040 ------- 0 4.1 7.0 85 851
r 0.557867 0 7 tcp 1040 ------- 0 4.1 7.0 86 853
r 0.558699 0 7 tcp 1040 ------- 0 4.1 7.0 87 855
r 0.559531 0 7 tcp 1040 ------- 0 4.1 7.0 88 857
r 0.560363 0 7 tcp 1040 ------- 0 4.1 7.0 89 859
r 0.561195 0 7 tcp 1040 ------- 0 4.1 7.0 90 860
r 0.601131 0 7 tcp 1040 ------- 0 4.1 7.0 91 953
r 0.601963 0 7 tcp 1040 ------- 0 4.1 7.0 92 955
r 0.602795 0 7 tcp 1040 ------- 0 4.1 7.0 93 957
r 0.603627 0 7 tcp 1040 ------- 0 4.1 7.0 94 959
r 0.604459 0 7 tcp 1040 ------- 0 4.1 7.0 95 961
r 0.605291 0 7 tcp 1040 ------- 0 4.1 7.0 96 963
r 0.606123 0 7 tcp 1040 ------- 0 4.1 7.0 97 965
r 0.606955 0 7 tcp 1040 ------- 0 4.1 7.0 98 967
r 0.607787 0 7 tcp 1040 ------- 0 4.1 7.0 99 969
r 0.608619 0 7 tcp 1040 ------- 0 4.1 7.0 100 971
r 0.609451 0 7 tcp 1040 ------- 0 4.1 7.0 101 973
r 0.610283 0 7 tcp 1040 ------- 0 4.1 7.0 102 975
r 0.651883 0 7 tcp 1040 ------- 0 4.1 7.0 103 1073
r 0.652715 0 7 tcp 1040 ------- 0 4.1 7.0 104 1074
r 0.653547 0 7 tcp 1040 ------- 0 4.1 7.0 105 1076
r 0.654379 0 7 tcp 1040 ------- 0 4.1 7.0 106 1078
r 0.655211 0 7 tcp 1040 ------- 0 4.1 7.0 107 1080
r 0.656043 0 7 tcp 1040 ------- 0 4.1 7.0 108 1082
r 0.656875 0 7 tcp 1040 ------- 0 4.1 7.0 109 1084
r 0.657707 0 7 tcp 1040 ------- 0 4.1 7.0 110 1086
r 0.658539 0 7 tcp 1040 ------- 0 4.1 7.0 111 1088
r 0.659371 0 7 tcp 1040 ------- 0 4.1 7.0 112 1090
r 0.660203 0 7 tcp 1040 ------- 0 4.1 7.0 113 1092
r 0.661035 0 7 tcp 1040 ------- 0 4.1 7.0 114 1094
r 0.661867 0 7 tcp 1040 ------- 0 4.1 7.0 115 1096
r 0.706795 0 7 tcp 1040 ------- 0 4.1 7.0 116 1200
r 0.707627 0 7 tcp 1040 ------- 0 4.1 7.0 117 1202
r 0.708459 0 7 tcp 1040 ------- 0 4.1 7.0 118 1203
r 0.709291 0 7 tcp 1040 ------- 0 4.1 7.0 119 1205
r 0.710123 0 7 tcp 1040 ------- 0 4.1 7.0 120 1207
r 0.710955 0 7 tcp 1040 ------- 0 4.1 7.0 121 1209
r 0.711787 0 7 tcp 1040 ------- 0 4.1 7.0 122 1211
r 0.712619 0 7 tcp 1040 ------- 0 4.1 7.0 123 1213
r 0.713451 0 7 tcp 1040 ------- 0 4.1 7.0 124 1215
r 0.714283 0 7 tcp 1040 ------- 0 4.1 7.0 125 1217
r 0.715115 0 7 tcp 1040 ------- 0 4.1 7.0 126 1219
r 0.715947 0 7 tcp 1040 ------- 0 4.1 7.0 127 1221
r 0.716779 0 7 tcp 1040 ------- 0 4.1 7.0 128 1223
r 0.717611 0 7 tcp 1040 ------- 0 4.1 7.0 129 1225
r 0.765867 0 7 tcp 1040 ------- 0 4.1 7.0 130 1337
r 0.766699 0 7 tcp 1040 ------- 0 4.1 7.0 131 1339
r 0.767531 0 7 tcp 1040 ------- 0 4.1 7.0 132 1341
r 0.768363 0 7 tcp 1040 ------- 0 4.1 7.0 133 1343
r 0.769195 0 7 tcp 1040 ------- 0 4.1 7.0 134 1344
r 0.770027 0 7 tcp 1040 ------- 0 4.1 7.0 135 1346
r 0.770859 0 7 tcp 1040 ------- 0 4.1 7.0 136 1348
r 0.771691 0 7 tcp 1040 ------- 0 4.1 7.0 137 1350
r 0.772523 0 7 tcp 1040 ------- 0 4.1 7.0 138 1352
r 0.773355 0 7 tcp 1040 ------- 0 4.1 7.0 139 1354
r 0.774187 0 7 tcp 1040 ------- 0 4.1 7.0 140 1356
r 0.775019 0 7 tcp 1040 ------- 0 4.1 7.0 141 1358
r 0.775851 0 7 tcp 1040 ------- 0 4.1 7.0 142 1360
r 0.776683 0 7 tcp 1040 ------- 0 4.1 7.0 143 1362
r 0.777515 0 7 tcp 1040 ------- 0 4.1 7.0 144 1364
r 0.829099 0 7 tcp 1040 ------- 0 4.1 7.0 145 1484
r 0.829931 0 7 tcp 1040 ------- 0 4.1 7.0 146 1486
r 0.830763 0 7 tcp 1040 ------- 0 4.1 7.0 147 1488
r 0.831595 0 7 tcp 1040 ------- 0 4.1 7.0 148 1490
r 0.832427 0 7 tcp 1040 ------- 0 4.1 7.0 149 1492
r 0.833259 0 7 tcp 1040 ------- 0 4.1 7.0 150 1493
r 0.834091 0 7 tcp 1040 ------- 0 4.1 7.0 151 1495
r 0.834923 0 7 tcp 1040 ------- 0 4.1 7.0 152 1497
r 0.835755 0 7 tcp 1040 ------- 0 4.1 7.0 153 1499
r 0.836587 0 7 tcp 1040 ------- 0 4.1 7.0 154 1501
r 0.837419 0 7 tcp 1040 ------- 0 4.1 7.0 155 1503
r 0.838251 0 7 tcp 1040 ------- 0 4.1 7.0 156 1505
r 0.839083 0 7 tcp 1040 ------- 0 4.1 7.0 157 1507
r 0.839915 0 7 tcp 1040 ------- 0 4.1 7.0 158 1509
r 0.840747 0 7 tcp 1040 ------- 0 4.1 7.0 159 1511
r 0.841579 0 7 tcp 1040 ------- 0 4.1 7.0 160 1513
r 0.893995 0 7 tcp 1040 ------- 0 4.1 7.0 161 1641
r 0.894827 0 7 tcp 1040 ------- 0 4.1 7.0 162 1643
r 0.895659 0 7 tcp 1040 ------- 0 4.1 7.0 163 1645
r 0.896491 0 7 tcp 1040 ------- 0 4.1 7.0 164 1647
r 0.897323 0 7 tcp 1040 ------- 0 4.1 7.0 165 1649
r 0.898155 0 7 tcp 1040 ------- 0 4.1 7.0 166 1651
r 0.898987 0 7 tcp 1040 ------- 0 4.1 7.0 167 1653
r 0.899819 0 7 tcp 1040 ------- 0 4.1 7.0 169 1656
r 0.900651 0 7 tcp 1040 ------- 0 4.1 7.0 170 1658
r 0.901483 0 7 tcp 1040 ------- 0 4.1 7.0 171 1660
r 0.902315 0 7 tcp 1040 ------- 0 4.1 7.0 172 1662
r 0.903147 0 7 tcp 1040 ------- 0 4.1 7.0 173 1664
r 0.903979 0 7 tcp 1040 ------- 0 4.1 7.0 174 1666
r 0.904811 0 7 tcp 1040 ------- 0 4.1 7.0 175 1668
r 0.905643 0 7 tcp 1040 ------- 0 4.1 7.0 176 1670
r 0.906475 0 7 tcp 1040 ------- 0 4.1 7.0 177 1672
r 0.948075 0 7 tcp 1040 ------- 0 4.1 7.0 178 1786
r 0.948907 0 7 tcp 1040 ------- 0 4.1 7.0 179 1788
r 0.949739 0 7 tcp 1040 ------- 0 4.1 7.0 180 1790
r 0.950571 0 7 tcp 1040 ------- 0 4.1 7.0 181 1792
r 0.951403 0 7 tcp 1040 ------- 0 4.1 7.0 182 1794
r 0.952235 0 7 tcp 1040 ------- 0 4.1 7.0 183 1796
r 0.953067 0 7 tcp 1040 ------- 0 4.1 7.0 184 1798
r 0.953899 0 7 tcp 1040 ------- 0 4.1 7.0 185 1800
r 0.954731 0 7 tcp 1040 ------- 0 4.1 7.0 186 1802
r 0.955563 0 7 tcp 1040 ---A--- 0 4.1 7.0 168 1804
r 0.979692 0 7 tcp 1040 ------- 0 4.1 7.0 187 1886
r 0.980524 0 7 tcp 1040 ------- 0 4.1 7.0 188 1887
r 1.003821 0 7 tcp 1040 ------- 0 4.1 7.0 189 1911
r 1.004653 0 7 tcp 1040 ------- 0 4.1 7.0 190 1912
r 1.005485 0 7 tcp 1040 ------- 0 4.1 7.0 191 1914
r 1.006317 0 7 tcp 1040 ------- 0 4.1 7.0 192 1915
r 1.035437 0 7 tcp 1040 ------- 0 4.1 7.0 193 1961
r 1.036269 0 7 tcp 1040 ------- 0 4.1 7.0 194 1962
r 1.037101 0 7 tcp 1040 ------- 0 4.1 7.0 195 1964
r 1.037933 0 7 tcp 1040 ------- 0 4.1 7.0 196 1965
r 1.038765 0 7 tcp 1040 ------- 0 4.1 7.0 197 1967
r 1.039597 0 7 tcp 1040 ------- 0 4.1 7.0 198 1968
r 1.040429 0 7 tcp 1040 ------- 0 4.1 7.0 199 1970
r 1.041261 0 7 tcp 1040 ------- 0 4.1 7.0 200 1971
r 1.068717 0 7 tcp 1040 ------- 0 4.1 7.0 201 2039
r 1.069549 0 7 tcp 1040 ------- 0 4.1 7.0 202 2041
r 1.070381 0 7 tcp 1040 ------- 0 4.1 7.0 203 2043
r 1.071213 0 7 tcp 1040 ------- 0 4.1 7.0 204 2045
r 1.072045 0 7 tcp 1040 ------- 0 4.1 7.0 205 2047
r 1.072877 0 7 tcp 1040 ------- 0 4.1 7.0 206 2049
r 1.073709 0 7 tcp 1040 ------- 0 4.1 7.0 207 2051
r 1.074541 0 7 tcp 1040 ------- 0 4.1 7.0 208 2053
r 1.104493 0 7 tcp 1040 ------- 0 4.1 7.0 209 2122
r 1.105325 0 7 tcp 1040 ------- 0 4.1 7.0 210 2123
r 1.106157 0 7 tcp 1040 ------- 0 4.1 7.0 211 2125
r 1.106989 0 7 tcp 1040 ------- 0 4.1 7.0 212 2127
r 1.107821 0 7 tcp 1040 ------- 0 4.1 7.0 213 2129
r 1.108653 0 7 tcp 1040 ------- 0 4.1 7.0 214 2131
r 1.109485 0 7 tcp 1040 ------- 0 4.1 7.0 215 2133
r 1.110317 0 7 tcp 1040 ------- 0 4.1 7.0 216 2135
r 1.111149 0 7 tcp 1040 ------- 0 4.1 7.0 217 2137
r 1.144429 0 7 tcp 1040 ------- 0 4.1 7.0 218 2213
r 1.145261 0 7 tcp 1040 ------- 0 4.1 7.0 219 2215
r 1.146093 0 7 tcp 1040 ------- 0 4.1 7.0 220 2216
r 1.146925 0 7 tcp 1040 ------- 0 4.1 7.0 221 2218
r 1.147757 0 7 tcp 1040 ------- 0 4.1 7.0 222 2220
r 1.148589 0 7 tcp 1040 ------- 0 4.1 7.0 223 2222
r 1.149421 0 7 tcp 1040 ------- 0 4.1 7.0 224 2224
r 1.150253 0 7 tcp 1040 ------- 0 4.1 7.0 225 2226
r 1.151085 0 7 tcp 1040 ------- 0 4.1 7.0 226 2228
r 1.151917 0 7 tcp 1040 ------- 0 4.1 7.0 227 2230
r 1.188525 0 7 tcp 1040 ------- 0 4.1 7.0 228 2314
r 1.189357 0 7 tcp 1040 ------- 0 4.1 7.0 229 2316
r 1.190189 0 7 tcp 1040 ------- 0 4.1 7.0 230 2318
r 1.191021 0 7 tcp 1040 ------- 0 4.1 7.0 231 2320
r 1.191853 0 7 tcp 1040 ------- 0 4.1 7.0 232 2321
r 1.192685 0 7 tcp 1040 ------- 0 4.1 7.0 233 2323
r 1.193517 0 7 tcp 1040 ------- 0 4.1 7.0 234 2325
r 1.194349 0 7 tcp 1040 ------- 0 4.1 7.0 235 2327
r 1.195181 0 7 tcp 1040 ------- 0 4.1 7.0 236 2329
r 1.196013 0 7 tcp 1040 ------- 0 4.1 7.0 237 2331
r 1.196845 0 7 tcp 1040 ------- 0 4.1 7.0 238 2333
r 1.236781 0 7 tcp 1040 ------- 0 4.1 7.0 239 2425
r 1.237613 0 7 tcp 1040 ------- 0 4.1 7.0 240 2427
r 1.238445 0 7 tcp 1040 ------- 0 4.1 7.0 241 2429
r 1.239277 0 7 tcp 1040 ------- 0 4.1 7.0 242 2431
r 1.240109 0 7 tcp 1040 ------- 0 4.1 7.0 243 2433
r 1.240941 0 7 tcp 1040 ------- 0 4.1 7.0 244 2434
r 1.241773 0 7 tcp 1040 ------- 0 4.1 7.0 245 2436
r 1.242605 0 7 tcp 1040 ------- 0 4.1 7.0 246 2438
r 1.243437 0 7 tcp 1040 ------- 0 4.1 7.0 247 2440
r 1.244269 0 7 tcp 1040 ------- 0 4.1 7.0 248 2442
r 1.245101 0 7 tcp 1040 ------- 0 4.1 7.0 249 2444
r 1.245933 0 7 tcp 1040 ------- 0 4.1 7.0 250 2446
r 1.289197 0 7 tcp 1040 ------- 0 4.1 7.0 251 2546
r 1.290029 0 7 tcp 1040 ------- 0 4.1 7.0 252 2548
r 1.290861 0 7 tcp 1040 ------- 0 4.1 7.0 253 2550
r 1.291693 0 7 tcp 1040 ------- 0 4.1 7.0 254 2552
r 1.292525 0 7 tcp 1040 ------- 0 4.1 7.0 255 2554
r 1.293357 0 7 tcp 1040 ------- 0 4.1 7.0 256 2556
r 1.294189 0 7 tcp 1040 ------- 0 4.1 7.0 257 2558
r 1.295021 0 7 tcp 1040 ------- 0 4.1 7.0 258 2559
r 1.295853 0 7 tcp 1040 ------- 0 4.1 7.0 259 2561
r 1.296685 0 7 tcp 1040 ------- 0 4.1 7.0 260 2563
r 1.297517 0 7 tcp 1040 ------- 0 4.1 7.0 261 2565
r 1.298349 0 7 tcp 1040 ------- 0 4.1 7.0 262 2567
r 1.299181 0 7 tcp 1040 ------- 0 4.1 7.0 263 2569
r 1.345773 0 7 tcp 1040 ------- 0 4.1 7.0 264 2677
r 1.346605 0 7 tcp 1040 ------- 0 4.1 7.0 265 2679
r 1.347437 0 7 tcp 1040 ------- 0 4.1 7.0 266 2681
r 1.348269 0 7 tcp 1040 ------- 0 4.1 7.0 267 2683
r 1.349101 0 7 tcp 1040 ------- 0 4.1 7.0 268 2685
r 1.349933 0 7 tcp 1040 ------- 0 4.1 7.0 269 2687
r 1.350765 0 7 tcp 1040 ------- 0 4.1 7.0 270 2689
r 1.351597 0 7 tcp 1040 ------- 0 4.1 7.0 271 2691
r 1.352429 0 7 tcp 1040 ------- 0 4.1 7.0 272 2692
r 1.353261 0 7 tcp 1040 ------- 0 4.1 7.0 273 2694
r 1.354093 0 7 tcp 1040 ------- 0 4.1 7.0 274 2696
r 1.354925 0 7 tcp 1040 ------- 0 4.1 7.0 275 2698
r 1.355757 0 7 tcp 1040 ------- 0 4.1 7.0 276 2700
r 1.356589 0 7 tcp 1040 ------- 0 4.1 7.0 277 2702
r 1.406509 0 7 tcp 1040 ------- 0 4.1 7.0 278 2818
r 1.407341 0 7 tcp 1040 ------- 0 4.1 7.0 279 2820
r 1.408173 0 7 tcp 1040 ------- 0 4.1 7.0 280 2822
r 1.409005 0 7 tcp 1040 ------- 0 4.1 7.0 281 2824
r 1.409837 0 7 tcp 1040 ------- 0 4.1 7.0 282 2826
r 1.410669 0 7 tcp 1040 ------- 0 4.1 7.0 283 2828
r 1.411501 0 7 tcp 1040 ------- 0 4.1 7.0 284 2830
r 1.412333 0 7 tcp 1040 ------- 0 4.1 7.0 285 2832
r 1.413165 0 7 tcp 1040 ------- 0 4.1 7.0 286 2834
r 1.413997 0 7 tcp 1040 ------- 0 4.1 7.0 287 2836
r 1.414829 0 7 tcp 1040 ------- 0 4.1 7.0 288 2837
r 1.415661 0 7 tcp 1040 ------- 0 4.1 7.0 289 2839
r 1.416493 0 7 tcp 1040 ------- 0 4.1 7.0 290 2841
r 1.417325 0 7 tcp 1040 ------- 0 4.1 7.0 291 2843
r 1.418157 0 7 tcp 1040 ------- 0 4.1 7.0 292 2845
r 1.471405 0 7 tcp 1040 ------- 0 4.1 7.0 293 2969
r 1.472237 0 7 tcp 1040 ------- 0 4.1 7.0 294 2971
r 1.473069 0 7 tcp 1040 ------- 0 4.1 7.0 295 2973
r 1.473901 0 7 tcp 1040 ------- 0 4.1 7.0 296 2975
r 1.474733 0 7 tcp 1040 ------- 0 4.1 7.0 297 2977
r 1.475565 0 7 tcp 1040 ------- 0 4.1 7.0 298 2979
r 1.476397 0 7 tcp 1040 ------- 0 4.1 7.0 299 2981
r 1.477229 0 7 tcp 1040 ------- 0 4.1 7.0 300 2983
r 1.478061 0 7 tcp 1040 ------- 0 4.1 7.0 301 2985
r 1.478893 0 7 tcp 1040 ------- 0 4.1 7.0 302 2987
r 1.479725 0 7 tcp 1040 ------- 0 4.1 7.0 303 2989
r 1.480557 0 7 tcp 1040 ------- 0 4.1 7.0 305 2992
r 1.481389 0 7 tcp 1040 ------- 0 4.1 7.0 306 2994
r 1.482221 0 7 tcp 1040 ------- 0 4.1 7.0 307 2996
r 1.483053 0 7 tcp 1040 ------- 0 4.1 7.0 308 2998
r 1.536301 0 7 tcp 1040 ------- 0 4.1 7.0 309 3130
r 1.537133 0 7 tcp 1040 ------- 0 4.1 7.0 310 3132
r 1.537965 0 7 tcp 1040 ------- 0 4.1 7.0 311 3134
r 1.538797 0 7 tcp 1040 ------- 0 4.1 7.0 312 3136
r 1.539629 0 7 tcp 1040 ------- 0 4.1 7.0 313 3138
r 1.540461 0 7 tcp 1040 ------- 0 4.1 7.0 314 3140
r 1.541293 0 7 tcp 1040 ------- 0 4.1 7.0 315 3142
r 1.542125 0 7 tcp 1040 ------- 0 4.1 7.0 316 3144
r 1.542957 0 7 tcp 1040 ------- 0 4.1 7.0 317 3146
r 1.543789 0 7 tcp 1040 ------- 0 4.1 7.0 318 3148
r 1.544621 0 7 tcp 1040 ------- 0 4.1 7.0 319 3150
r 1.545453 0 7 tcp 1040 ------- 0 4.1 7.0 320 3152
r 1.546285 0 7 tcp 1040 ------- 0 4.1 7.0 321 3154
r 1.547117 0 7 tcp 1040 ---A--- 0 4.1 7.0 304 3156
r 1.599533 0 7 tcp 1040 ------- 0 4.1 7.0 322 3297
r 1.600365 0 7 tcp 1040 ------- 0 4.1 7.0 323 3298
r 1.624494 0 7 tcp 1040 ------- 0 4.1 7.0 324 3364
r 1.625326 0 7 tcp 1040 ------- 0 4.1 7.0 325 3365
r 1.626158 0 7 tcp 1040 ------- 0 4.1 7.0 326 3366
r 1.62699 0 7 tcp 1040 ------- 0 4.1 7.0 327 3367
r 1.650286 0 7 tcp 1040 ------- 0 4.1 7.0 328 3400
r 1.651118 0 7 tcp 1040 ------- 0 4.1 7.0 329 3401
r 1.65195 0 7 tcp 1040 ------- 0 4.1 7.0 330 3403
r 1.652782 0 7 tcp 1040 ------- 0 4.1 7.0 331 3404
r 1.653614 0 7 tcp 1040 ------- 0 4.1 7.0 332 3406
r 1.654446 0 7 tcp 1040 ------- 0 4.1 7.0 333 3407
r 1.655278 0 7 tcp 1040 ------- 0 4.1 7.0 334 3408
r 1.65611 0 7 tcp 1040 ------- 0 4.1 7.0 335 3409
r 1.683566 0 7 tcp 1040 ------- 0 4.1 7.0 336 3460
r 1.684398 0 7 tcp 1040 ------- 0 4.1 7.0 337 3462
r 1.68523 0 7 tcp 1040 ------- 0 4.1 7.0 338 3464
r 1.686062 0 7 tcp 1040 ------- 0 4.1 7.0 339 3466
r 1.686894 0 7 tcp 1040 ------- 0 4.1 7.0 340 3468
r 1.687726 0 7 tcp 1040 ------- 0 4.1 7.0 341 3470
r 1.688558 0 7 tcp 1040 ------- 0 4.1 7.0 342 3472
r 1.68939 0 7 tcp 1040 ------- 0 4.1 7.0 343 3474
r 1.716846 0 7 tcp 1040 ------- 0 4.1 7.0 344 3540
r 1.717678 0 7 tcp 1040 ------- 0 4.1 7.0 345 3541
r 1.71851 0 7 tcp 1040 ------- 0 4.1 7.0 346 3543
r 1.719342 0 7 tcp 1040 ------- 0 4.1 7.0 347 3545
r 1.720174 0 7 tcp 1040 ------- 0 4.1 7.0 348 3547
r 1.721006 0 7 tcp 1040 ------- 0 4.1 7.0 349 3549
r 1.721838 0 7 tcp 1040 ------- 0 4.1 7.0 350 3551
r 1.72267 0 7 tcp 1040 ------- 0 4.1 7.0 351 3553
r 1.723502 0 7 tcp 1040 ------- 0 4.1 7.0 352 3555
r 1.754286 0 7 tcp 1040 ------- 0 4.1 7.0 353 3625
r 1.755118 0 7 tcp 1040 ------- 0 4.1 7.0 354 3627
r 1.75595 0 7 tcp 1040 ------- 0 4.1 7.0 355 3628
r 1.756782 0 7 tcp 1040 ------- 0 4.1 7.0 356 3630
r 1.757614 0 7 tcp 1040 ------- 0 4.1 7.0 357 3632
r 1.758446 0 7 tcp 1040 ------- 0 4.1 7.0 358 3634
r 1.759278 0 7 tcp 1040 ------- 0 4.1 7.0 359 3636
r 1.76011 0 7 tcp 1040 ------- 0 4.1 7.0 360 3638
r 1.760942 0 7 tcp 1040 ------- 0 4.1 7.0 361 3640
r 1.761774 0 7 tcp 1040 ------- 0 4.1 7.0 362 3642
r 1.795886 0 7 tcp 1040 ------- 0 4.1 7.0 363 3720
r 1.796718 0 7 tcp 1040 ------- 0 4.1 7.0 364 3722
r 1.79755 0 7 tcp 1040 ------- 0 4.1 7.0 365 3724
r 1.798382 0 7 tcp 1040 ------- 0 4.1 7.0 366 3726
r 1.799214 0 7 tcp 1040 ------- 0 4.1 7.0 367 3727
r 1.800046 0 7 tcp 1040 ------- 0 4.1 7.0 368 3729
r 1.800878 0 7 tcp 1040 ------- 0 4.1 7.0 369 3731
r 1.80171 0 7 tcp 1040 ------- 0 4.1 7.0 370 3733
r 1.802542 0 7 tcp 1040 ------- 0 4.1 7.0 371 3735
r 1.803374 0 7 tcp 1040 ------- 0 4.1 7.0 372 3737
r 1.804206 0 7 tcp 1040 ------- 0 4.1 7.0 373 3739
r 1.841646 0 7 tcp 1040 ------- 0 4.1 7.0 374 3825
r 1.842478 0 7 tcp 1040 ------- 0 4.1 7.0 375 3827
r 1.84331 0 7 tcp 1040 ------- 0 4.1 7.0 376 3829
r 1.844142 0 7 tcp 1040 ------- 0 4.1 7.0 377 3831
r 1.844974 0 7 tcp 1040 ------- 0 4.1 7.0 378 3833
r 1.845806 0 7 tcp 1040 ------- 0 4.1 7.0 379 3834
r 1.846638 0 7 tcp 1040 ------- 0 4.1 7.0 380 3836
r 1.84747 0 7 tcp 1040 ------- 0 4.1 7.0 381 3838
r 1.848302 0 7 tcp 1040 ------- 0 4.1 7.0 382 3840
r 1.849134 0 7 tcp 1040 ------- 0 4.1 7.0 383 3842
r 1.849966 0 7 tcp 1040 ------- 0 4.1 7.0 384 3844
r 1.850798 0 7 tcp 1040 ------- 0 4.1 7.0 385 3846
r 1.891566 0 7 tcp 1040 ------- 0 4.1 7.0 386 3940
r 1.892398 0 7 tcp 1040 ------- 0 4.1 7.0 387 3942
r 1.89323 0 7 tcp 1040 ------- 0 4.1 7.0 388 3944
r 1.894062 0 7 tcp 1040 ------- 0 4.1 7.0 389 3946
r 1.894894 0 7 tcp 1040 ------- 0 4.1 7.0 390 3948
r 1.895726 0 7 tcp 1040 ------- 0 4.1 7.0 391 3950
r 1.896558 0 7 tcp 1040 ------- 0 4.1 7.0 392 3952
r 1.89739 0 7 tcp 1040 ------- 0 4.1 7.0 393 3953
r 1.898222 0 7 tcp 1040 ------- 0 4.1 7.0 394 3955
r 1.899054 0 7 tcp 1040 ------- 0 4.1 7.0 395 3957
r 1.899886 0 7 tcp 1040 ------- 0 4.1 7.0 396 3959
r 1.900718 0 7 tcp 1040 ------- 0 4.1 7.0 397 3961
r 1.90155 0 7 tcp 1040 ------- 0 4.1 7.0 398 3963
r 1.945646 0 7 tcp 1040 ------- 0 4.1 7.0 399 4065
r 1.946478 0 7 tcp 1040 ------- 0 4.1 7.0 400 4067
r 1.94731 0 7 tcp 1040 ------- 0 4.1 7.0 401 4069
r 1.948142 0 7 tcp 1040 ------- 0 4.1 7.0 402 4071
r 1.948974 0 7 tcp 1040 ------- 0 4.1 7.0 403 4073
r 1.949806 0 7 tcp 1040 ------- 0 4.1 7.0 404 4075
r 1.950638 0 7 tcp 1040 ------- 0 4.1 7.0 405 4077
r 1.95147 0 7 tcp 1040 ------- 0 4.1 7.0 406 4079
r 1.952302 0 7 tcp 1040 ------- 0 4.1 7.0 407 4080
r 1.953134 0 7 tcp 1040 ------- 0 4.1 7.0 408 4082
r 1.953966 0 7 tcp 1040 ------- 0 4.1 7.0 409 4084
r 1.954798 0 7 tcp 1040 ------- 0 4.1 7.0 410 4086
r 1.95563 0 7 tcp 1040 ------- 0 4.1 7.0 411 4088
r 1.956462 0 7 tcp 1040 ------- 0 4.1 7.0 412 4090
r 2.003886 0 7 tcp 1040 ------- 0 4.1 7.0 413 4200
r 2.004718 0 7 tcp 1040 ------- 0 4.1 7.0 414 4202
r 2.00555 0 7 tcp 1040 ------- 0 4.1 7.0 415 4204
r 2.006382 0 7 tcp 1040 ------- 0 4.1 7.0 416 4206
r 2.007214 0 7 tcp 1040 ------- 0 4.1 7.0 417 4208
r 2.008046 0 7 tcp 1040 ------- 0 4.1 7.0 418 4210
r 2.008878 0 7 tcp 1040 ------- 0 4.1 7.0 419 4212
r 2.00971 0 7 tcp 1040 ------- 0 4.1 7.0 420 4214
r 2.010542 0 7 tcp 1040 ------- 0 4.1 7.0 421 4216
r 2.011374 0 7 tcp 1040 ------- 0 4.1 7.0 422 4218
r 2.012206 0 7 tcp 1040 ------- 0 4.1 7.0 423 4219
r 2.013038 0 7 tcp 1040 ------- 0 4.1 7.0 424 4221
r 2.01387 0 7 tcp 1040 ------- 0 4.1 7.0 425 4223
r 2.014702 0 7 tcp 1040 ------- 0 4.1 7.0 426 4225
r 2.015534 0 7 tcp 1040 ------- 0 4.1 7.0 427 4227
r 2.066286 0 7 tcp 1040 ------- 0 4.1 7.0 428 4345
r 2.067118 0 7 tcp 1040 ------- 0 4.1 7.0 429 4347
r 2.06795 0 7 tcp 1040 ------- 0 4.1 7.0 430 4349
r 2.068782 0 7 tcp 1040 ------- 0 4.1 7.0 431 4351
r 2.069614 0 7 tcp 1040 ------- 0 4.1 7.0 432 4353
r 2.070446 0 7 tcp 1040 ------- 0 4.1 7.0 433 4355
r 2.071278 0 7 tcp 1040 ------- 0 4.1 7.0 434 4357
r 2.07211 0 7 tcp 1040 ------- 0 4.1 7.0 435 4359
r 2.072942 0 7 tcp 1040 ------- 0 4.1 7.0 436 4361
r 2.073774 0 7 tcp 1040 ------- 0 4.1 7.0 437 4363
r 2.074606 0 7 tcp 1040 ------- 0 4.1 7.0 438 4365
r 2.075438 0 7 tcp 1040 ------- 0 4.1 7.0 439 4366
r 2.07627 0 7 tcp 1040 ------- 0 4.1 7.0 440 4368
r 2.077102 0 7 tcp 1040 ------- 0 4.1 7.0 441 4370
r 2.077934 0 7 tcp 1040 ------- 0 4.1 7.0 442 4372
r 2.078766 0 7 tcp 1040 ------- 0 4.1 7.0 443 4374
r 2.131182 0 7 tcp 1040 ------- 0 4.1 7.0 444 4500
r 2.132014 0 7 tcp 1040 ------- 0 4.1 7.0 445 4502
r 2.132846 0 7 tcp 1040 ------- 0 4.1 7.0 446 4504
r 2.133678 0 7 tcp 1040 ------- 0 4.1 7.0 447 4506
r 2.13451 0 7 tcp 1040 ------- 0 4.1 7.0 448 4508
r 2.135342 0 7 tcp 1040 ------- 0 4.1 7.0 449 4510
r 2.136174 0 7 tcp 1040 ------- 0 4.1 7.0 450 4512
r 2.137006 0 7 tcp 1040 ------- 0 4.1 7.0 451 4514
r 2.137838 0 7 tcp 1040 ------- 0 4.1 7.0 452 4516
r 2.13867 0 7 tcp 1040 ------- 0 4.1 7.0 453 4518
r 2.139502 0 7 tcp 1040 ------- 0 4.1 7.0 454 4520
r 2.140334 0 7 tcp 1040 ------- 0 4.1 7.0 455 4522
r 2.141166 0 7 tcp 1040 ------- 0 4.1 7.0 456 4524
r 2.141998 0 7 tcp 1040 ------- 0 4.1 7.0 458 4527
r 2.14283 0 7 tcp 1040 ------- 0 4.1 7.0 459 4529
r 2.143662 0 7 tcp 1040 ------- 0 4.1 7.0 460 4531
r 2.194414 0 7 tcp 1040 ------- 0 4.1 7.0 461 4657
r 2.195246 0 7 tcp 1040 ------- 0 4.1 7.0 462 4659
r 2.196078 0 7 tcp 1040 ------- 0 4.1 7.0 463 4661
r 2.19691 0 7 tcp 1040 ------- 0 4.1 7.0 464 4663
r 2.197742 0 7 tcp 1040 ------- 0 4.1 7.0 465 4665
r 2.198574 0 7 tcp 1040 ------- 0 4.1 7.0 466 4667
r 2.199406 0 7 tcp 1040 ------- 0 4.1 7.0 467 4669
r 2.200238 0 7 tcp 1040 ------- 0 4.1 7.0 468 4671
r 2.20107 0 7 tcp 1040 ------- 0 4.1 7.0 469 4673
r 2.201902 0 7 tcp 1040 ------- 0 4.1 7.0 470 4675
r 2.202734 0 7 tcp 1040 ------- 0 4.1 7.0 471 4677
r 2.203566 0 7 tcp 1040 ------- 0 4.1 7.0 472 4679
r 2.204398 0 7 tcp 1040 ------- 0 4.1 7.0 473 4681
r 2.20523 0 7 tcp 1040 ------- 0 4.1 7.0 474 4683
r 2.206062 0 7 tcp 1040 ------- 0 4.1 7.0 475 4685
r 2.206894 0 7 tcp 1040 ---A--- 0 4.1 7.0 457 4687
r 2.237678 0 7 tcp 1040 ------- 0 4.1 7.0 476 4800
r 2.23851 0 7 tcp 1040 ------- 0 4.1 7.0 477 4801
r 2.265967 0 7 tcp 1040 ------- 0 4.1 7.0 478 4841
r 2.266799 0 7 tcp 1040 ------- 0 4.1 7.0 479 4842
r 2.267631 0 7 tcp 1040 ------- 0 4.1 7.0 480 4843
r 2.268463 0 7 tcp 1040 ------- 0 4.1 7.0 481 4844
r 2.298416 0 7 tcp 1040 ------- 0 4.1 7.0 482 4887
r 2.299248 0 7 tcp 1040 ------- 0 4.1 7.0 483 4888
r 2.30008 0 7 tcp 1040 ------- 0 4.1 7.0 484 4889
r 2.300912 0 7 tcp 1040 ------- 0 4.1 7.0 485 4890
r 2.301744 0 7 tcp 1040 ------- 0 4.1 7.0 486 4891
r 2.302576 0 7 tcp 1040 ------- 0 4.1 7.0 487 4892
r 2.303408 0 7 tcp 1040 ------- 0 4.1 7.0 488 4893
r 2.30424 0 7 tcp 1040 ------- 0 4.1 7.0 489 4894
r 2.331696 0 7 tcp 1040 ------- 0 4.1 7.0 490 4961
r 2.332528 0 7 tcp 1040 ------- 0 4.1 7.0 491 4963
r 2.33336 0 7 tcp 1040 ------- 0 4.1 7.0 492 4965
r 2.334192 0 7 tcp 1040 ------- 0 4.1 7.0 493 4967
r 2.335024 0 7 tcp 1040 ------- 0 4.1 7.0 494 4969
r 2.335856 0 7 tcp 1040 ------- 0 4.1 7.0 495 4971
r 2.336688 0 7 tcp 1040 ------- 0 4.1 7.0 496 4973
r 2.33752 0 7 tcp 1040 ------- 0 4.1 7.0 497 4975
r 2.36664 0 7 tcp 1040 ------- 0 4.1 7.0 498 5043
r 2.367472 0 7 tcp 1040 ------- 0 4.1 7.0 499 5044
r 2.368304 0 7 tcp 1040 ------- 0 4.1 7.0 500 5046
r 2.369136 0 7 tcp 1040 ------- 0 4.1 7.0 501 5048
r 2.369968 0 7 tcp 1040 ------- 0 4.1 7.0 502 5050
r 2.3708 0 7 tcp 1040 ------- 0 4.1 7.0 503 5052
r 2.371632 0 7 tcp 1040 ------- 0 4.1 7.0 504 5054
r 2.372464 0 7 tcp 1040 ------- 0 4.1 7.0 505 5056
r 2.373296 0 7 tcp 1040 ------- 0 4.1 7.0 506 5058
r 2.405744 0 7 tcp 1040 ------- 0 4.1 7.0 507 5132
r 2.406576 0 7 tcp 1040 ------- 0 4.1 7.0 508 5134
r 2.407408 0 7 tcp 1040 ------- 0 4.1 7.0 509 5135
r 2.40824 0 7 tcp 1040 ------- 0 4.1 7.0 510 5137
r 2.409072 0 7 tcp 1040 ------- 0 4.1 7.0 511 5139
r 2.409904 0 7 tcp 1040 ------- 0 4.1 7.0 512 5141
r 2.410736 0 7 tcp 1040 ------- 0 4.1 7.0 513 5143
r 2.411568 0 7 tcp 1040 ------- 0 4.1 7.0 514 5145
r 2.4124 0 7 tcp 1040 ------- 0 4.1 7.0 515 5147
r 2.413232 0 7 tcp 1040 ------- 0 4.1 7.0 516 5149
r 2.449008 0 7 tcp 1040 ------- 0 4.1 7.0 517 5231
r 2.44984 0 7 tcp 1040 ------- 0 4.1 7.0 518 5233
r 2.450672 0 7 tcp 1040 ------- 0 4.1 7.0 519 5235
r 2.451504 0 7 tcp 1040 ------- 0 4.1 7.0 520 5237
r 2.452336 0 7 tcp 1040 ------- 0 4.1 7.0 521 5238
r 2.453168 0 7 tcp 1040 ------- 0 4.1 7.0 522 5240
r 2.454 0 7 tcp 1040 ------- 0 4.1 7.0 523 5242
r 2.454832 0 7 tcp 1040 ------- 0 4.1 7.0 524 5244
r 2.455664 0 7 tcp 1040 ------- 0 4.1 7.0 525 5246
r 2.456496 0 7 tcp 1040 ------- 0 4.1 7.0 526 5248
r 2.457328 0 7 tcp 1040 ------- 0 4.1 7.0 527 5250
r 2.496432 0 7 tcp 1040 ------- 0 4.1 7.0 528 5340
r 2.497264 0 7 tcp 1040 ------- 0 4.1 7.0 529 5342
r 2.498096 0 7 tcp 1040 ------- 0 4.1 7.0 530 5344
r 2.498928 0 7 tcp 1040 ------- 0 4.1 7.0 531 5346
r 2.49976 0 7 tcp 1040 ------- 0 4.1 7.0 532 5348
r 2.500592 0 7 tcp 1040 ------- 0 4.1 7.0 533 5349
r 2.501424 0 7 tcp 1040 ------- 0 4.1 7.0 534 5351
r 2.502256 0 7 tcp 1040 ------- 0 4.1 7.0 535 5353
r 2.503088 0 7 tcp 1040 ------- 0 4.1 7.0 536 5355
r 2.50392 0 7 tcp 1040 ------- 0 4.1 7.0 537 5357
r 2.504752 0 7 tcp 1040 ------- 0 4.1 7.0 538 5359
r 2.505584 0 7 tcp 1040 ------- 0 4.1 7.0 539 5361
r 2.548016 0 7 tcp 1040 ------- 0 4.1 7.0 540 5459
r 2.548848 0 7 tcp 1040 ------- 0 4.1 7.0 541 5461
r 2.54968 0 7 tcp 1040 ------- 0 4.1 7.0 542 5463
r 2.550512 0 7 tcp 1040 ------- 0 4.1 7.0 543 5465
r 2.551344 0 7 tcp 1040 ------- 0 4.1 7.0 544 5467
r 2.552176 0 7 tcp 1040 ------- 0 4.1 7.0 545 5469
r 2.553008 0 7 tcp 1040 ------- 0 4.1 7.0 546 5471
r 2.55384 0 7 tcp 1040 ------- 0 4.1 7.0 547 5472
r 2.554672 0 7 tcp 1040 ------- 0 4.1 7.0 548 5474
r 2.555504 0 7 tcp 1040 ------- 0 4.1 7.0 549 5476
r 2.556336 0 7 tcp 1040 ------- 0 4.1 7.0 550 5478
r 2.557168 0 7 tcp 1040 ------- 0 4.1 7.0 551 5480
r 2.558 0 7 tcp 1040 ------- 0 4.1 7.0 552 5482
r 2.60376 0 7 tcp 1040 ------- 0 4.1 7.0 553 5588
r 2.604592 0 7 tcp 1040 ------- 0 4.1 7.0 554 5590
r 2.605424 0 7 tcp 1040 ------- 0 4.1 7.0 555 5592
r 2.606256 0 7 tcp 1040 ------- 0 4.1 7.0 556 5594
r 2.607088 0 7 tcp 1040 ------- 0 4.1 7.0 557 5596
r 2.60792 0 7 tcp 1040 ------- 0 4.1 7.0 558 5598
r 2.608752 0 7 tcp 1040 ------- 0 4.1 7.0 559 5600
r 2.609584 0 7 tcp 1040 ------- 0 4.1 7.0 560 5602
r 2.610416 0 7 tcp 1040 ------- 0 4.1 7.0 561 5603
r 2.611248 0 7 tcp 1040 ------- 0 4.1 7.0 562 5605
r 2.61208 0 7 tcp 1040 ------- 0 4.1 7.0 563 5607
r 2.612912 0 7 tcp 1040 ------- 0 4.1 7.0 564 5609
r 2.613744 0 7 tcp 1040 ------- 0 4.1 7.0 565 5611
r 2.614576 0 7 tcp 1040 ------- 0 4.1 7.0 566 5613
r 2.663664 0 7 tcp 1040 ------- 0 4.1 7.0 567 5727
r 2.664496 0 7 tcp 1040 ------- 0 4.1 7.0 568 5729
r 2.665328 0 7 tcp 1040 ------- 0 4.1 7.0 569 5731
r 2.66616 0 7 tcp 1040 ------- 0 4.1 7.0 570 5733
r 2.666992 0 7 tcp 1040 ------- 0 4.1 7.0 571 5735
r 2.667824 0 7 tcp 1040 ------- 0 4.1 7.0 572 5737
r 2.668656 0 7 tcp 1040 ------- 0 4.1 7.0 573 5739
r 2.669488 0 7 tcp 1040 ------- 0 4.1 7.0 574 5741
r 2.67032 0 7 tcp 1040 ------- 0 4.1 7.0 575 5743
r 2.671152 0 7 tcp 1040 ------- 0 4.1 7.0 576 5745
r 2.671984 0 7 tcp 1040 ------- 0 4.1 7.0 577 5746
r 2.672816 0 7 tcp 1040 ------- 0 4.1 7.0 578 5748
r 2.673648 0 7 tcp 1040 ------- 0 4.1 7.0 579 5750
r 2.67448 0 7 tcp 1040 ------- 0 4.1 7.0 580 5752
r 2.675312 0 7 tcp 1040 ------- 0 4.1 7.0 581 5754
r 2.727728 0 7 tcp 1040 ------- 0 4.1 7.0 582 5876
r 2.72856 0 7 tcp 1040 ------- 0 4.1 7.0 583 5878
r 2.729392 0 7 tcp 1040 ------- 0 4.1 7.0 584 5880
r 2.730224 0 7 tcp 1040 ------- 0 4.1 7.0 585 5882
r 2.731056 0 7 tcp 1040 ------- 0 4.1 7.0 586 5884
r 2.731888 0 7 tcp 1040 ------- 0 4.1 7.0 587 5886