r 0.111142 0 8 tcp 40 ------- 0 4.2 8.0 0 2
r 0.138535 0 8 tcp 1040 ------- 0 4.2 8.0 1 24
r 0.139367 0 8 tcp 1040 ------- 0 4.2 8.0 2 25
r 0.165992 0 8 tcp 1040 ------- 0 4.2 8.0 3 66
r 0.166824 0 8 tcp 1040 ------- 0 4.2 8.0 4 67
r 0.167656 0 8 tcp 1040 ------- 0 4.2 8.0 5 69
r 0.168488 0 8 tcp 1040 ------- 0 4.2 8.0 6 70
r 0.205928 0 8 tcp 1040 ------- 0 4.2 8.0 7 138
r 0.20676 0 8 tcp 1040 ------- 0 4.2 8.0 8 139
r 0.207592 0 8 tcp 1040 ------- 0 4.2 8.0 9 141
r 0.208424 0 8 tcp 1040 ------- 0 4.2 8.0 10 142
r 0.209256 0 8 tcp 1040 ------- 0 4.2 8.0 11 144
r 0.210088 0 8 tcp 1040 ------- 0 4.2 8.0 12 145
r 0.21092 0 8 tcp 1040 ------- 0 4.2 8.0 13 147
r 0.211752 0 8 tcp 1040 ------- 0 4.2 8.0 14 148
r 0.270824 0 8 tcp 1040 ------- 0 4.2 8.0 15 282
r 0.271656 0 8 tcp 1040 ------- 0 4.2 8.0 17 285
r 0.272488 0 8 tcp 1040 ------- 0 4.2 8.0 19 288
r 0.27332 0 8 tcp 1040 ------- 0 4.2 8.0 21 291
r 0.274152 0 8 tcp 1040 ------- 0 4.2 8.0 23 294
r 0.274984 0 8 tcp 1040 ------- 0 4.2 8.0 25 297
r 0.275816 0 8 tcp 1040 ------- 0 4.2 8.0 27 300
r 0.276648 0 8 tcp 1040 ------- 0 4.2 8.0 29 303
r 0.329896 0 8 tcp 1040 ------- 0 4.2 8.0 31 493
r 0.330728 0 8 tcp 1040 ------- 0 4.2 8.0 32 494
r 0.33156 0 8 tcp 1040 ------- 0 4.2 8.0 33 496
r 0.332392 0 8 tcp 1040 ------- 0 4.2 8.0 34 498
r 0.333224 0 8 tcp 1040 ---A--- 0 4.2 8.0 16 500
r 0.364008 0 8 tcp 1040 ------- 0 4.2 8.0 18 609
r 0.36484 0 8 tcp 1040 ------- 0 4.2 8.0 19 610
r 0.392297 0 8 tcp 1040 ------- 0 4.2 8.0 20 666
r 0.393129 0 8 tcp 1040 ------- 0 4.2 8.0 21 667
r 0.393961 0 8 tcp 1040 ------- 0 4.2 8.0 22 668
r 0.394793 0 8 tcp 1040 ------- 0 4.2 8.0 23 669
r 0.428905 0 8 tcp 1040 ------- 0 4.2 8.0 24 738
r 0.429737 0 8 tcp 1040 ------- 0 4.2 8.0 25 739
r 0.430569 0 8 tcp 1040 ------- 0 4.2 8.0 26 741
r 0.431401 0 8 tcp 1040 ------- 0 4.2 8.0 27 743
r 0.432233 0 8 tcp 1040 ------- 0 4.2 8.0 28 744
r 0.433065 0 8 tcp 1040 ------- 0 4.2 8.0 29 746
r 0.483817 0 8 tcp 1040 ------- 0 4.2 8.0 30 848
r 0.484649 0 8 tcp 1040 ------- 0 4.2 8.0 31 849
r 0.485481 0 8 tcp 1040 ------- 0 4.2 8.0 32 851
r 0.486313 0 8 tcp 1040 ------- 0 4.2 8.0 33 853
r 0.487145 0 8 tcp 1040 ------- 0 4.2 8.0 34 854
r 0.487977 0 8 tcp 1040 ------- 0 4.2 8.0 35 856
r 0.488809 0 8 tcp 1040 ------- 0 4.2 8.0 36 858
r 0.489641 0 8 tcp 1040 ------- 0 4.2 8.0 37 859
r 0.490473 0 8 tcp 1040 ------- 0 4.2 8.0 38 861
r 0.545385 0 8 tcp 1040 ------- 0 4.2 8.0 39 1001
r 0.546217 0 8 tcp 1040 ------- 0 4.2 8.0 40 1002
r 0.547049 0 8 tcp 1040 ------- 0 4.2 8.0 41 1003
r 0.547881 0 8 tcp 1040 ------- 0 4.2 8.0 42 1004
r 0.548713 0 8 tcp 1040 ------- 0 4.2 8.0 43 1006
r 0.549545 0 8 tcp 1040 ------- 0 4.2 8.0 44 1008
r 0.550377 0 8 tcp 1040 ------- 0 4.2 8.0 45 1014
r 0.551209 0 8 tcp 1040 ------- 0 4.2 8.0 46 1016
r 0.601129 0 8 tcp 1040 ------- 0 4.2 8.0 47 1142
r 0.601961 0 8 tcp 1040 ------- 0 4.2 8.0 48 1144
r 0.602793 0 8 tcp 1040 ------- 0 4.2 8.0 49 1146
r 0.603625 0 8 tcp 1040 ------- 0 4.2 8.0 50 1148
r 0.604457 0 8 tcp 1040 ------- 0 4.2 8.0 51 1149
r 0.605289 0 8 tcp 1040 ------- 0 4.2 8.0 52 1151
r 0.606121 0 8 tcp 1040 ------- 0 4.2 8.0 53 1153
r 0.606953 0 8 tcp 1040 ------- 0 4.2 8.0 54 1155
r 0.607785 0 8 tcp 1040 ------- 0 4.2 8.0 55 1157
r 0.639401 0 8 tcp 1040 ------- 0 4.2 8.0 56 1255
r 0.640233 0 8 tcp 1040 ------- 0 4.2 8.0 57 1257
r 0.641065 0 8 tcp 1040 ------- 0 4.2 8.0 58 1259
r 0.641897 0 8 tcp 1040 ------- 0 4.2 8.0 59 1261
r 0.642729 0 8 tcp 1040 ------- 0 4.2 8.0 60 1263
r 0.643561 0 8 tcp 1040 ------- 0 4.2 8.0 61 1264
r 0.644393 0 8 tcp 1040 ------- 0 4.2 8.0 62 1266
r 0.645225 0 8 tcp 1040 ------- 0 4.2 8.0 63 1268
r 0.646057 0 8 tcp 1040 ------- 0 4.2 8.0 64 1270
r 0.646889 0 8 tcp 1040 ------- 0 4.2 8.0 65 1272
r 0.684329 0 8 tcp 1040 ------- 0 4.2 8.0 66 1355
r 0.685161 0 8 tcp 1040 ------- 0 4.2 8.0 67 1357
r 0.685993 0 8 tcp 1040 ------- 0 4.2 8.0 68 1359
r 0.686825 0 8 tcp 1040 ------- 0 4.2 8.0 69 1361
r 0.687657 0 8 tcp 1040 ------- 0 4.2 8.0 70 1363
r 0.688489 0 8 tcp 1040 ------- 0 4.2 8.0 71 1365
r 0.689321 0 8 tcp 1040 ------- 0 4.2 8.0 72 1367
r 0.690153 0 8 tcp 1040 ------- 0 4.2 8.0 73 1368
r 0.690985 0 8 tcp 1040 ------- 0 4.2 8.0 74 1370
r 0.691817 0 8 tcp 1040 ------- 0 4.2 8.0 75 1372
r 0.692649 0 8 tcp 1040 ------- 0 4.2 8.0 76 1374
r 0.738409 0 8 tcp 1040 ------- 0 4.2 8.0 77 1474
r 0.739241 0 8 tcp 1040 ------- 0 4.2 8.0 78 1476
r 0.740073 0 8 tcp 1040 ------- 0 4.2 8.0 79 1478
r 0.740905 0 8 tcp 1040 ------- 0 4.2 8.0 80 1480
r 0.741737 0 8 tcp 1040 ------- 0 4.2 8.0 81 1482
r 0.742569 0 8 tcp 1040 ------- 0 4.2 8.0 82 1484
r 0.743401 0 8 tcp 1040 ------- 0 4.2 8.0 83 1486
r 0.744233 0 8 tcp 1040 ------- 0 4.2 8.0 84 1488
r 0.745065 0 8 tcp 1040 ------- 0 4.2 8.0 85 1489
r 0.745897 0 8 tcp 1040 ------- 0 4.2 8.0 86 1491
r 0.746729 0 8 tcp 1040 ------- 0 4.2 8.0 87 1493
r 0.747561 0 8 tcp 1040 ------- 0 4.2 8.0 88 1495
r 0.798313 0 8 tcp 1040 ------- 0 4.2 8.0 89 1611
r 0.799145 0 8 tcp 1040 ------- 0 4.2 8.0 90 1613
r 0.799977 0 8 tcp 1040 ------- 0 4.2 8.0 91 1615
r 0.800809 0 8 tcp 1040 ------- 0 4.2 8.0 92 1617
r 0.801641 0 8 tcp 1040 ------- 0 4.2 8.0 93 1619
r 0.802473 0 8 tcp 1040 ------- 0 4.2 8.0 94 1621
r 0.803305 0 8 tcp 1040 ------- 0 4.2 8.0 95 1623
r 0.804137 0 8 tcp 1040 ------- 0 4.2 8.0 96 1625
r 0.804969 0 8 tcp 1040 ------- 0 4.2 8.0 97 1627
r 0.805801 0 8 tcp 1040 ------- 0 4.2 8.0 98 1629
r 0.806633 0 8 tcp 1040 ------- 0 4.2 8.0 99 1630
r 0.807465 0 8 tcp 1040 ------- 0 4.2 8.0 100 1632
r 0.808297 0 8 tcp 1040 ------- 0 4.2 8.0 101 1634
r 0.863209 0 8 tcp 1040 ------- 0 4.2 8.0 102 1766
r 0.864041 0 8 tcp 1040 ------- 0 4.2 8.0 103 1768
r 0.864873 0 8 tcp 1040 ------- 0 4.2 8.0 104 1770
r 0.865705 0 8 tcp 1040 ------- 0 4.2 8.0 105 1772
r 0.866537 0 8 tcp 1040 ------- 0 4.2 8.0 106 1774
r 0.867369 0 8 tcp 1040 ------- 0 4.2 8.0 107 1776
r 0.868201 0 8 tcp 1040 ------- 0 4.2 8.0 108 1778
r 0.869033 0 8 tcp 1040 ------- 0 4.2 8.0 109 1780
r 0.869865 0 8 tcp 1040 ------- 0 4.2 8.0 110 1782
r 0.870697 0 8 tcp 1040 ------- 0 4.2 8.0 111 1784
r 0.871529 0 8 tcp 1040 ------- 0 4.2 8.0 112 1786
r 0.872361 0 8 tcp 1040 ------- 0 4.2 8.0 114 1789
r 0.873193 0 8 tcp 1040 ------- 0 4.2 8.0 115 1791
r 0.928105 0 8 tcp 1040 ------- 0 4.2 8.0 116 1926
r 0.928937 0 8 tcp 1040 ------- 0 4.2 8.0 117 1928
r 0.929769 0 8 tcp 1040 ------- 0 4.2 8.0 118 1930
r 0.930601 0 8 tcp 1040 ------- 0 4.2 8.0 119 1932
r 0.931433 0 8 tcp 1040 ------- 0 4.2 8.0 120 1934
r 0.932265 0 8 tcp 1040 ------- 0 4.2 8.0 121 1936
r 0.933097 0 8 tcp 1040 ------- 0 4.2 8.0 122 1938
r 0.933929 0 8 tcp 1040 ------- 0 4.2 8.0 123 1940
r 0.934761 0 8 tcp 1040 ------- 0 4.2 8.0 124 1942
r 0.935593 0 8 tcp 1040 ------- 0 4.2 8.0 125 1944
r 0.936425 0 8 tcp 1040 ------- 0 4.2 8.0 126 1946
r 0.937257 0 8 tcp 1040 ------- 0 4.2 8.0 127 1948
r 0.938089 0 8 tcp 1040 ------- 0 4.2 8.0 128 1950
r 0.983017 0 8 tcp 1040 ---A--- 0 4.2 8.0 113 2071
r 1.00881 0 8 tcp 1040 ------- 0 4.2 8.0 129 2151
r 1.009642 0 8 tcp 1040 ------- 0 4.2 8.0 130 2152
r 1.037098 0 8 tcp 1040 ------- 0 4.2 8.0 131 2202
r 1.03793 0 8 tcp 1040 ------- 0 4.2 8.0 132 2203
r 1.038762 0 8 tcp 1040 ------- 0 4.2 8.0 133 2204
r 1.039594 0 8 tcp 1040 ------- 0 4.2 8.0 134 2205
r 1.070378 0 8 tcp 1040 ------- 0 4.2 8.0 135 2273
r 1.07121 0 8 tcp 1040 ------- 0 4.2 8.0 136 2274
r 1.072042 0 8 tcp 1040 ------- 0 4.2 8.0 137 2276
r 1.072874 0 8 tcp 1040 ------- 0 4.2 8.0 138 2277
r 1.073706 0 8 tcp 1040 ------- 0 4.2 8.0 139 2279
r 1.074538 0 8 tcp 1040 ------- 0 4.2 8.0 140 2280
r 1.07537 0 8 tcp 1040 ------- 0 4.2 8.0 141 2282
r 1.116138 0 8 tcp 1040 ------- 0 4.2 8.0 142 2368
r 1.11697 0 8 tcp 1040 ------- 0 4.2 8.0 143 2370
r 1.117802 0 8 tcp 1040 ------- 0 4.2 8.0 144 2372
r 1.118634 0 8 tcp 1040 ------- 0 4.2 8.0 145 2374
r 1.119466 0 8 tcp 1040 ------- 0 4.2 8.0 146 2376
r 1.120298 0 8 tcp 1040 ------- 0 4.2 8.0 147 2378
r 1.12113 0 8 tcp 1040 ------- 0 4.2 8.0 148 2380
r 1.121962 0 8 tcp 1040 ------- 0 4.2 8.0 149 2381
r 1.170218 0 8 tcp 1040 ------- 0 4.2 8.0 150 2488
r 1.17105 0 8 tcp 1040 ------- 0 4.2 8.0 151 2490
r 1.171882 0 8 tcp 1040 ------- 0 4.2 8.0 152 2492
r 1.172714 0 8 tcp 1040 ------- 0 4.2 8.0 153 2494
r 1.173546 0 8 tcp 1040 ------- 0 4.2 8.0 154 2496
r 1.174378 0 8 tcp 1040 ------- 0 4.2 8.0 155 2498
r 1.17521 0 8 tcp 1040 ------- 0 4.2 8.0 156 2500
r 1.176042 0 8 tcp 1040 ------- 0 4.2 8.0 157 2502
r 1.176874 0 8 tcp 1040 ------- 0 4.2 8.0 158 2503
r 1.232618 0 8 tcp 1040 ------- 0 4.2 8.0 159 2628
r 1.23345 0 8 tcp 1040 ------- 0 4.2 8.0 160 2630
r 1.234282 0 8 tcp 1040 ------- 0 4.2 8.0 161 2632
r 1.235114 0 8 tcp 1040 ------- 0 4.2 8.0 162 2634
r 1.235946 0 8 tcp 1040 ------- 0 4.2 8.0 163 2636
r 1.236778 0 8 tcp 1040 ------- 0 4.2 8.0 164 2638
r 1.23761 0 8 tcp 1040 ------- 0 4.2 8.0 165 2640
r 1.238442 0 8 tcp 1040 ------- 0 4.2 8.0 166 2642
r 1.239274 0 8 tcp 1040 ------- 0 4.2 8.0 167 2644
r 1.297514 0 8 tcp 1040 ------- 0 4.2 8.0 168 2781
r 1.298346 0 8 tcp 1040 ------- 0 4.2 8.0 170 2784
r 1.299178 0 8 tcp 1040 ------- 0 4.2 8.0 171 2786
r 1.30001 0 8 tcp 1040 ------- 0 4.2 8.0 172 2788
r 1.300842 0 8 tcp 1040 ------- 0 4.2 8.0 173 2790
r 1.301674 0 8 tcp 1040 ------- 0 4.2 8.0 174 2792
r 1.302506 0 8 tcp 1040 ------- 0 4.2 8.0 175 2794
r 1.303338 0 8 tcp 1040 ------- 0 4.2 8.0 176 2796
r 1.30417 0 8 tcp 1040 ------- 0 4.2 8.0 177 2798
r 1.36241 0 8 tcp 1040 ------- 0 4.2 8.0 178 2947
r 1.363242 0 8 tcp 1040 ------- 0 4.2 8.0 179 2949
r 1.364074 0 8 tcp 1040 ------- 0 4.2 8.0 180 2951
r 1.364906 0 8 tcp 1040 ---A--- 0 4.2 8.0 169 2953
r 1.403178 0 8 tcp 1040 ------- 0 4.2 8.0 181 3077
r 1.40401 0 8 tcp 1040 ------- 0 4.2 8.0 182 3078
r 1.428139 0 8 tcp 1040 ------- 0 4.2 8.0 183 3144
r 1.428971 0 8 tcp 1040 ------- 0 4.2 8.0 184 3145
r 1.429803 0 8 tcp 1040 ------- 0 4.2 8.0 185 3147
r 1.430635 0 8 tcp 1040 ------- 0 4.2 8.0 186 3148
r 1.459755 0 8 tcp 1040 ------- 0 4.2 8.0 187 3203
r 1.460587 0 8 tcp 1040 ------- 0 4.2 8.0 188 3204
r 1.461419 0 8 tcp 1040 ------- 0 4.2 8.0 189 3206
r 1.462251 0 8 tcp 1040 ------- 0 4.2 8.0 190 3208
r 1.463083 0 8 tcp 1040 ------- 0 4.2 8.0 191 3210
r 1.495531 0 8 tcp 1040 ------- 0 4.2 8.0 192 3284
r 1.496363 0 8 tcp 1040 ------- 0 4.2 8.0 193 3286
r 1.497195 0 8 tcp 1040 ------- 0 4.2 8.0 194 3288
r 1.498027 0 8 tcp 1040 ------- 0 4.2 8.0 195 3289
r 1.498859 0 8 tcp 1040 ------- 0 4.2 8.0 196 3291
r 1.499691 0 8 tcp 1040 ------- 0 4.2 8.0 197 3293
r 1.539627 0 8 tcp 1040 ------- 0 4.2 8.0 198 3380
r 1.540459 0 8 tcp 1040 ------- 0 4.2 8.0 199 3382
r 1.541291 0 8 tcp 1040 ------- 0 4.2 8.0 200 3384
r 1.542123 0 8 tcp 1040 ------- 0 4.2 8.0 201 3386
r 1.542955 0 8 tcp 1040 ------- 0 4.2 8.0 202 3387
r 1.543787 0 8 tcp 1040 ------- 0 4.2 8.0 203 3389
r 1.544619 0 8 tcp 1040 ------- 0 4.2 8.0 204 3391
r 1.592043 0 8 tcp 1040 ------- 0 4.2 8.0 205 3496
r 1.592875 0 8 tcp 1040 ------- 0 4.2 8.0 206 3498
r 1.593707 0 8 tcp 1040 ------- 0 4.2 8.0 207 3500
r 1.594539 0 8 tcp 1040 ------- 0 4.2 8.0 208 3502
r 1.595371 0 8 tcp 1040 ------- 0 4.2 8.0 209 3504
r 1.596203 0 8 tcp 1040 ------- 0 4.2 8.0 210 3506
r 1.597035 0 8 tcp 1040 ------- 0 4.2 8.0 211 3507
r 1.597867 0 8 tcp 1040 ------- 0 4.2 8.0 212 3509
r 1.651947 0 8 tcp 1040 ------- 0 4.2 8.0 213 3631
r 1.652779 0 8 tcp 1040 ------- 0 4.2 8.0 214 3633
r 1.653611 0 8 tcp 1040 ------- 0 4.2 8.0 215 3635
r 1.654443 0 8 tcp 1040 ------- 0 4.2 8.0 216 3637
r 1.655275 0 8 tcp 1040 ------- 0 4.2 8.0 217 3639
r 1.656107 0 8 tcp 1040 ------- 0 4.2 8.0 218 3641
r 1.656939 0 8 tcp 1040 ------- 0 4.2 8.0 219 3643
r 1.657771 0 8 tcp 1040 ------- 0 4.2 8.0 220 3644
r 1.658603 0 8 tcp 1040 ------- 0 4.2 8.0 221 3646
r 1.716843 0 8 tcp 1040 ------- 0 4.2 8.0 222 3785
r 1.717675 0 8 tcp 1040 ------- 0 4.2 8.0 223 3787
r 1.718507 0 8 tcp 1040 ------- 0 4.2 8.0 224 3789
r 1.719339 0 8 tcp 1040 ------- 0 4.2 8.0 225 3791
r 1.720171 0 8 tcp 1040 ------- 0 4.2 8.0 226 3793
r 1.721003 0 8 tcp 1040 ------- 0 4.2 8.0 227 3795
r 1.721835 0 8 tcp 1040 ------- 0 4.2 8.0 228 3797
r 1.722667 0 8 tcp 1040 ------- 0 4.2 8.0 229 3799
r 1.723499 0 8 tcp 1040 ------- 0 4.2 8.0 230 3801
r 1.781739 0 8 tcp 1040 ------- 0 4.2 8.0 232 3947
r 1.782571 0 8 tcp 1040 ------- 0 4.2 8.0 233 3949
r 1.783403 0 8 tcp 1040 ------- 0 4.2 8.0 234 3951
r 1.784235 0 8 tcp 1040 ------- 0 4.2 8.0 235 3953
r 1.785067 0 8 tcp 1040 ------- 0 4.2 8.0 236 3955
r 1.785899 0 8 tcp 1040 ------- 0 4.2 8.0 237 3957
r 1.786731 0 8 tcp 1040 ------- 0 4.2 8.0 238 3959
r 1.787563 0 8 tcp 1040 ------- 0 4.2 8.0 239 3961
r 1.788395 0 8 tcp 1040 ------- 0 4.2 8.0 240 3963
r 1.825835 0 8 tcp 1040 ------- 0 4.2 8.0 241 4078
r 1.826667 0 8 tcp 1040 ------- 0 4.2 8.0 242 4080
r 1.827499 0 8 tcp 1040 ---A--- 0 4.2 8.0 231 4082
r 1.853292 0 8 tcp 1040 ------- 0 4.2 8.0 243 4153
r 1.854124 0 8 tcp 1040 ------- 0 4.2 8.0 244 4154
r 1.884077 0 8 tcp 1040 ------- 0 4.2 8.0 245 4204
r 1.884909 0 8 tcp 1040 ------- 0 4.2 8.0 246 4205
r 1.885741 0 8 tcp 1040 ------- 0 4.2 8.0 247 4207
r 1.886573 0 8 tcp 1040 ------- 0 4.2 8.0 248 4208
r 1.917357 0 8 tcp 1040 ------- 0 4.2 8.0 249 4277
r 1.918189 0 8 tcp 1040 ------- 0 4.2 8.0 250 4278
r 1.919021 0 8 tcp 1040 ------- 0 4.2 8.0 251 4280
r 1.919853 0 8 tcp 1040 ------- 0 4.2 8.0 252 4282
r 1.920685 0 8 tcp 1040 ------- 0 4.2 8.0 253 4284
r 1.958125 0 8 tcp 1040 ------- 0 4.2 8.0 254 4366
r 1.958957 0 8 tcp 1040 ------- 0 4.2 8.0 255 4368
r 1.959789 0 8 tcp 1040 ------- 0 4.2 8.0 256 4370
r 1.960621 0 8 tcp 1040 ------- 0 4.2 8.0 257 4371
r 1.961453 0 8 tcp 1040 ------- 0 4.2 8.0 258 4373
r 1.962285 0 8 tcp 1040 ------- 0 4.2 8.0 259 4375
r 2.006381 0 8 tcp 1040 ------- 0 4.2 8.0 260 4473
r 2.007213 0 8 tcp 1040 ------- 0 4.2 8.0 261 4475
r 2.008045 0 8 tcp 1040 ------- 0 4.2 8.0 262 4477
r 2.008877 0 8 tcp 1040 ------- 0 4.2 8.0 263 4479
r 2.009709 0 8 tcp 1040 ------- 0 4.2 8.0 264 4480
r 2.010541 0 8 tcp 1040 ------- 0 4.2 8.0 265 4482
r 2.011373 0 8 tcp 1040 ------- 0 4.2 8.0 266 4484
r 2.062957 0 8 tcp 1040 ------- 0 4.2 8.0 267 4599
r 2.063789 0 8 tcp 1040 ------- 0 4.2 8.0 268 4601
r 2.064621 0 8 tcp 1040 ------- 0 4.2 8.0 269 4603
r 2.065453 0 8 tcp 1040 ------- 0 4.2 8.0 270 4605
r 2.066285 0 8 tcp 1040 ------- 0 4.2 8.0 271 4607
r 2.067117 0 8 tcp 1040 ------- 0 4.2 8.0 272 4609
r 2.067949 0 8 tcp 1040 ------- 0 4.2 8.0 273 4610
r 2.068781 0 8 tcp 1040 ------- 0 4.2 8.0 274 4612
r 2.127853 0 8 tcp 1040 ------- 0 4.2 8.0 275 4745
r 2.128685 0 8 tcp 1040 ------- 0 4.2 8.0 276 4747
r 2.129517 0 8 tcp 1040 ------- 0 4.2 8.0 277 4749
r 2.130349 0 8 tcp 1040 ------- 0 4.2 8.0 278 4751
r 2.131181 0 8 tcp 1040 ------- 0 4.2 8.0 279 4753
r 2.132013 0 8 tcp 1040 ------- 0 4.2 8.0 280 4755
r 2.132845 0 8 tcp 1040 ------- 0 4.2 8.0 281 4757
r 2.133677 0 8 tcp 1040 ------- 0 4.2 8.0 283 4760
r 2.192749 0 8 tcp 1040 ------- 0 4.2 8.0 284 4911
r 2.193581 0 8 tcp 1040 ------- 0 4.2 8.0 285 4913
r 2.194413 0 8 tcp 1040 ------- 0 4.2 8.0 286 4915
r 2.195245 0 8 tcp 1040 ------- 0 4.2 8.0 287 4917
r 2.196077 0 8 tcp 1040 ------- 0 4.2 8.0 288 4919
r 2.196909 0 8 tcp 1040 ------- 0 4.2 8.0 289 4921
r 2.197741 0 8 tcp 1040 ------- 0 4.2 8.0 290 4923
r 2.198573 0 8 tcp 1040 ------- 0 4.2 8.0 291 4925
r 2.256813 0 8 tcp 1040 ------- 0 4.2 8.0 292 5066
r 2.257645 0 8 tcp 1040 ---A--- 0 4.2 8.0 282 5068
r 2.281774 0 8 tcp 1040 ------- 0 4.2 8.0 293 5163
r 2.282606 0 8 tcp 1040 ------- 0 4.2 8.0 294 5164
r 2.305902 0 8 tcp 1040 ------- 0 4.2 8.0 295 5203
r 2.306734 0 8 tcp 1040 ------- 0 4.2 8.0 296 5204
r 2.307566 0 8 tcp 1040 ------- 0 4.2 8.0 297 5206
r 2.308398 0 8 tcp 1040 ------- 0 4.2 8.0 298 5207
r 2.339182 0 8 tcp 1040 ------- 0 4.2 8.0 299 5265
r 2.340014 0 8 tcp 1040 ------- 0 4.2 8.0 300 5267
r 2.340846 0 8 tcp 1040 ------- 0 4.2 8.0 301 5269
r 2.341678 0 8 tcp 1040 ------- 0 4.2 8.0 302 5271
r 2.373294 0 8 tcp 1040 ------- 0 4.2 8.0 303 5346
r 2.374126 0 8 tcp 1040 ------- 0 4.2 8.0 304 5347
r 2.374958 0 8 tcp 1040 ------- 0 4.2 8.0 305 5349
r 2.37579 0 8 tcp 1040 ------- 0 4.2 8.0 306 5351
r 2.376622 0 8 tcp 1040 ------- 0 4.2 8.0 307 5353
r 2.415726 0 8 tcp 1040 ------- 0 4.2 8.0 308 5438
r 2.416558 0 8 tcp 1040 ------- 0 4.2 8.0 309 5440
r 2.41739 0 8 tcp 1040 ------- 0 4.2 8.0 310 5441
r 2.418222 0 8 tcp 1040 ------- 0 4.2 8.0 311 5443
r 2.419054 0 8 tcp 1040 ------- 0 4.2 8.0 312 5445
r 2.419886 0 8 tcp 1040 ------- 0 4.2 8.0 313 5447
r 2.466478 0 8 tcp 1040 ------- 0 4.2 8.0 314 5550
r 2.46731 0 8 tcp 1040 ------- 0 4.2 8.0 315 5552
r 2.468142 0 8 tcp 1040 ------- 0 4.2 8.0 316 5554
r 2.468974 0 8 tcp 1040 ------- 0 4.2 8.0 317 5556
r 2.469806 0 8 tcp 1040 ------- 0 4.2 8.0 318 5557
r 2.470638 0 8 tcp 1040 ------- 0 4.2 8.0 319 5559
r 2.47147 0 8 tcp 1040 ------- 0 4.2 8.0 320 5561
r 2.52555 0 8 tcp 1040 ------- 0 4.2 8.0 321 5682
r 2.526382 0 8 tcp 1040 ------- 0 4.2 8.0 322 5684
r 2.527214 0 8 tcp 1040 ------- 0 4.2 8.0 323 5686
r 2.528046 0 8 tcp 1040 ------- 0 4.2 8.0 324 5688
r 2.528878 0 8 tcp 1040 ------- 0 4.2 8.0 325 5690
r 2.52971 0 8 tcp 1040 ------- 0 4.2 8.0 326 5691
r 2.530542 0 8 tcp 1040 ------- 0 4.2 8.0 327 5693
r 2.531374 0 8 tcp 1040 ------- 0 4.2 8.0 328 5695
r 2.590446 0 8 tcp 1040 ------- 0 4.2 8.0 329 5834
r 2.591278 0 8 tcp 1040 ------- 0 4.2 8.0 330 5836
r 2.59211 0 8 tcp 1040 ------- 0 4.2 8.0 331 5838
r 2.592942 0 8 tcp 1040 ------- 0 4.2 8.0 332 5840
r 2.593774 0 8 tcp 1040 ------- 0 4.2 8.0 333 5842
r 2.594606 0 8 tcp 1040 ------- 0 4.2 8.0 334 5844
r 2.595438 0 8 tcp 1040 ------- 0 4.2 8.0 335 5846
r 2.59627 0 8 tcp 1040 ------- 0 4.2 8.0 337 5849
r 2.655342 0 8 tcp 1040 ------- 0 4.2 8.0 338 5997
r 2.656174 0 8 tcp 1040 ------- 0 4.2 8.0 339 5999
r 2.657006 0 8 tcp 1040 ------- 0 4.2 8.0 340 6001
r 2.657838 0 8 tcp 1040 ------- 0 4.2 8.0 341 6003
r 2.65867 0 8 tcp 1040 ------- 0 4.2 8.0 342 6005
r 2.659502 0 8 tcp 1040 ------- 0 4.2 8.0 343 6007
r 2.660334 0 8 tcp 1040 ------- 0 4.2 8.0 344 6009
r 2.661166 0 8 tcp 1040 ------- 0 4.2 8.0 345 6011
r 2.705262 0 8 tcp 1040 ------- 0 4.2 8.0 346 6135
r 2.706094 0 8 tcp 1040 ---A--- 0 4.2 8.0 336 6137
r 2.731887 0 8 tcp 1040 ------- 0 4.2 8.0 347 6213
r 2.732719 0 8 tcp 1040 ------- 0 4.2 8.0 348 6214
r 2.761008 0 8 tcp 1040 ------- 0 4.2 8.0 349 6259
r 2.76184 0 8 tcp 1040 ------- 0 4.2 8.0 350 6260
r 2.762672 0 8 tcp 1040 ------- 0 4.2 8.0 351 6261
r 2.763504 0 8 tcp 1040 ------- 0 4.2 8.0 352 6262
r 2.794288 0 8 tcp 1040 ------- 0 4.2 8.0 353 6327
r 2.79512 0 8 tcp 1040 ------- 0 4.2 8.0 354 6329
r 2.795952 0 8 tcp 1040 ------- 0 4.2 8.0 355 6331
r 2.796784 0 8 tcp 1040 ------- 0 4.2 8.0 356 6333
r 2.830896 0 8 tcp 1040 ------- 0 4.2 8.0 357 6411
r 2.831728 0 8 tcp 1040 ------- 0 4.2 8.0 358 6412
r 2.83256 0 8 tcp 1040 ------- 0 4.2 8.0 359 6414
r 2.833392 0 8 tcp 1040 ------- 0 4.2 8.0 360 6416
r 2.834224 0 8 tcp 1040 ------- 0 4.2 8.0 361 6418
r 2.875824 0 8 tcp 1040 ------- 0 4.2 8.0 362 6509
r 2.876656 0 8 tcp 1040 ------- 0 4.2 8.0 363 6511
r 2.877488 0 8 tcp 1040 ------- 0 4.2 8.0 364 6512
r 2.87832 0 8 tcp 1040 ------- 0 4.2 8.0 365 6514
r 2.879152 0 8 tcp 1040 ------- 0 4.2 8.0 366 6516
r 2.879984 0 8 tcp 1040 ------- 0 4.2 8.0 367 6518
r 2.929072 0 8 tcp 1040 ------- 0 4.2 8.0 368 6627
r 2.929904 0 8 tcp 1040 ------- 0 4.2 8.0 369 6629
r 2.930736 0 8 tcp 1040 ------- 0 4.2 8.0 370 6631
r 2.931568 0 8 tcp 1040 ------- 0 4.2 8.0 371 6633
r 2.9324 0 8 tcp 1040 ------- 0 4.2 8.0 372 6634
r 2.933232 0 8 tcp 1040 ------- 0 4.2 8.0 373 6636
r 2.934064 0 8 tcp 1040 ------- 0 4.2 8.0 374 6638
r 2.99064 0 8 tcp 1040 ------- 0 4.2 8.0 375 6765
r 2.991472 0 8 tcp 1040 ------- 0 4.2 8.0 376 6767
r 2.992304 0 8 tcp 1040 ------- 0 4.2 8.0 377 6769
r 2.993136 0 8 tcp 1040 ------- 0 4.2 8.0 378 6771
r 2.993968 0 8 tcp 1040 ------- 0 4.2 8.0 379 6773
r 2.9948 0 8 tcp 1040 ------- 0 4.2 8.0 380 6774
r 2.995632 0 8 tcp 1040 ------- 0 4.2 8.0 381 6776
r 2.996464 0 8 tcp 1040 ------- 0 4.2 8.0 382 6778
r 3.055536 0 8 tcp 1040 ------- 0 4.2 8.0 383 6943
r 3.056368 0 8 tcp 1040 ------- 0 4.2 8.0 384 6945
r 3.0572 0 8 tcp 1040 ------- 0 4.2 8.0 385 6947
r 3.058032 0 8 tcp 1040 ------- 0 4.2 8.0 386 6949
r 3.058864 0 8 tcp 1040 ------- 0 4.2 8.0 387 6951
r 3.059696 0 8 tcp 1040 ------- 0 4.2 8.0 388 6953
r 3.060528 0 8 tcp 1040 ------- 0 4.2 8.0 389 6955
r 3.06136 0 8 tcp 1040 ------- 0 4.2 8.0 391 6958
r 3.120432 0 8 tcp 1040 ------- 0 4.2 8.0 392 7156
r 3.121264 0 8 tcp 1040 ------- 0 4.2 8.0 393 7157
r 3.122096 0 8 tcp 1040 ------- 0 4.2 8.0 394 7158
r 3.122928 0 8 tcp 1040 ------- 0 4.2 8.0 395 7159
r 3.12376 0 8 tcp 1040 ------- 0 4.2 8.0 396 7160
r 3.124592 0 8 tcp 1040 ------- 0 4.2 8.0 397 7161
r 3.125424 0 8 tcp 1040 ------- 0 4.2 8.0 398 7162
r 3.126256 0 8 tcp 1040 ------- 0 4.2 8.0 399 7163
r 3.156208 0 8 tcp 1040 ------- 0 4.2 8.0 400 7306
r 3.15704 0 8 tcp 1040 ---A--- 0 4.2 8.0 390 7308
r 3.186871 0 8 tcp 1040 ------- 0 4.2 8.0 401 7418
r 3.187703 0 8 tcp 1040 ------- 0 4.2 8.0 402 7419
r 3.227801 0 8 tcp 1040 ------- 0 4.2 8.0 403 7506
r 3.228633 0 8 tcp 1040 ------- 0 4.2 8.0 404 7507
r 3.229465 0 8 tcp 1040 ------- 0 4.2 8.0 405 7524
r 3.230297 0 8 tcp 1040 ------- 0 4.2 8.0 406 7525
r 3.268569 0 8 tcp 1040 ------- 0 4.2 8.0 407 7624
r 3.269401 0 8 tcp 1040 ------- 0 4.2 8.0 408 7626
r 3.270233 0 8 tcp 1040 ------- 0 4.2 8.0 409 7628
r 3.271065 0 8 tcp 1040 ------- 0 4.2 8.0 410 7650
r 3.315161 0 8 tcp 1040 ------- 0 4.2 8.0 411 7784
r 3.315993 0 8 tcp 1040 ------- 0 4.2 8.0 412 7785
r 3.316825 0 8 tcp 1040 ------- 0 4.2 8.0 413 7786
r 3.317657 0 8 tcp 1040 ------- 0 4.2 8.0 414 7787
r 3.318489 0 8 tcp 1040 ------- 0 4.2 8.0 415 7788
r 3.370073 0 8 tcp 1040 ------- 0 4.2 8.0 416 7931
r 3.370905 0 8 tcp 1040 ------- 0 4.2 8.0 417 7933
r 3.371737 0 8 tcp 1040 ------- 0 4.2 8.0 418 7934
r 3.372569 0 8 tcp 1040 ------- 0 4.2 8.0 419 7936
r 3.373401 0 8 tcp 1040 ------- 0 4.2 8.0 420 7938
r 3.374233 0 8 tcp 1040 ------- 0 4.2 8.0 421 7940
r 3.433305 0 8 tcp 1040 ------- 0 4.2 8.0 422 8113
r 3.434137 0 8 tcp 1040 ------- 0 4.2 8.0 423 8115
r 3.434969 0 8 tcp 1040 ------- 0 4.2 8.0 424 8117
r 3.435801 0 8 tcp 1040 ------- 0 4.2 8.0 425 8119
r 3.436633 0 8 tcp 1040 ------- 0 4.2 8.0 426 8120
r 3.437465 0 8 tcp 1040 ------- 0 4.2 8.0 427 8122
r 3.438297 0 8 tcp 1040 ------- 0 4.2 8.0 428 8124
r 3.499033 0 8 tcp 1040 ------- 0 4.2 8.0 429 8325
r 3.499865 0 8 tcp 1040 ------- 0 4.2 8.0 430 8326
r 3.500697 0 8 tcp 1040 ------- 0 4.2 8.0 431 8327
r 3.501529 0 8 tcp 1040 ------- 0 4.2 8.0 432 8328
r 3.502361 0 8 tcp 1040 ------- 0 4.2 8.0 433 8329
r 3.503193 0 8 tcp 1040 ------- 0 4.2 8.0 434 8330
r 3.504025 0 8 tcp 1040 ------- 0 4.2 8.0 435 8331
r 3.504857 0 8 tcp 1040 ------- 0 4.2 8.0 436 8332
r 3.564761 0 8 tcp 1040 ------- 0 4.2 8.0 438 8541
r 3.565593 0 8 tcp 1040 ------- 0 4.2 8.0 439 8543
r 3.566425 0 8 tcp 1040 ------- 0 4.2 8.0 440 8545
r 3.567257 0 8 tcp 1040 ------- 0 4.2 8.0 441 8547
r 3.568089 0 8 tcp 1040 ------- 0 4.2 8.0 442 8549
r 3.568921 0 8 tcp 1040 ------- 0 4.2 8.0 443 8551
r 3.569753 0 8 tcp 1040 ------- 0 4.2 8.0 445 8554
r 3.613017 0 8 tcp 1040 ------- 0 4.2 8.0 446 8731
r 3.613849 0 8 tcp 1040 ------- 0 4.2 8.0 447 8732
r 3.614681 0 8 tcp 1040 ---A--- 0 4.2 8.0 437 8733
r 3.647129 0 8 tcp 1040 ------- 0 4.2 8.0 444 8859
r 3.647961 0 8 tcp 1040 ------- 0 4.2 8.0 445 8860
r 3.695638 0 8 tcp 1040 ------- 0 4.2 8.0 448 8980
r 3.69647 0 8 tcp 1040 ------- 0 4.2 8.0 449 8981
r 3.697302 0 8 tcp 1040 ------- 0 4.2 8.0 450 8982
r 3.698134 0 8 tcp 1040 ------- 0 4.2 8.0 451 8983
r 3.747222 0 8 tcp 1040 ------- 0 4.2 8.0 452 9130
r 3.748054 0 8 tcp 1040 ------- 0 4.2 8.0 453 9147
r 3.748886 0 8 tcp 1040 ------- 0 4.2 8.0 454 9148
r 3.749718 0 8 tcp 1040 ------- 0 4.2 8.0 455 9149
r 3.803798 0 8 tcp 1040 ------- 0 4.2 8.0 456 9300
r 3.80463 0 8 tcp 1040 ------- 0 4.2 8.0 457 9302
r 3.805462 0 8 tcp 1040 ------- 0 4.2 8.0 458 9303
r 3.806294 0 8 tcp 1040 ------- 0 4.2 8.0 459 9305
r 3.807126 0 8 tcp 1040 ------- 0 4.2 8.0 460 9307
r 3.867862 0 8 tcp 1040 ------- 0 4.2 8.0 461 9500
r 3.868694 0 8 tcp 1040 ------- 0 4.2 8.0 462 9501
r 3.869526 0 8 tcp 1040 ------- 0 4.2 8.0 463 9502
r 3.870358 0 8 tcp 1040 ------- 0 4.2 8.0 464 9503
r 3.87119 0 8 tcp 1040 ------- 0 4.2 8.0 465 9504
r 3.872022 0 8 tcp 1040 ------- 0 4.2 8.0 466 9505
r 3.932758 0 8 tcp 1040 ------- 0 4.2 8.0 467 9692
r 3.93359 0 8 tcp 1040 ------- 0 4.2 8.0 468 9693
r 3.934422 0 8 tcp 1040 ------- 0 4.2 8.0 469 9694
r 3.935254 0 8 tcp 1040 ------- 0 4.2 8.0 470 9695
r 3.936086 0 8 tcp 1040 ------- 0 4.2 8.0 471 9697
r 3.936918 0 8 tcp 1040 ------- 0 4.2 8.0 472 9698
r 3.93775 0 8 tcp 1040 ------- 0 4.2 8.0 473 9700
r 3.986838 0 8 tcp 1040 ------- 0 4.2 8.0 474 9894
r 3.98767 0 8 tcp 1040 ------- 0 4.2 8.0 475 9896
r 3.988502 0 8 tcp 1040 ------- 0 4.2 8.0 476 9898
r 3.989334 0 8 tcp 1040 ------- 0 4.2 8.0 477 9900
r 3.990166 0 8 tcp 1040 ------- 0 4.2 8.0 478 9902
r 3.990998 0 8 tcp 1040 ------- 0 4.2 8.0 479 9904
r 3.99183 0 8 tcp 1040 ------- 0 4.2 8.0 480 9905
r 3.992662 0 8 tcp 1040 ------- 0 4.2 8.0 481 9922
r 4.02095 0 8 tcp 1040 ------- 0 4.2 8.0 482 10040
r 4.021782 0 8 tcp 1040 ------- 0 4.2 8.0 483 10042
r 4.022614 0 8 tcp 1040 ------- 0 4.2 8.0 484 10044
r 4.023446 0 8 tcp 1040 ------- 0 4.2 8.0 485 10046
r 4.024278 0 8 tcp 1040 ------- 0 4.2 8.0 486 10048
r 4.02511 0 8 tcp 1040 ------- 0 4.2 8.0 487 10050
r 4.028206 0 8 tcp 1040 ------- 0 4.2 8.0 488 10067
r 4.029038 0 8 tcp 1040 ------- 0 4.2 8.0 489 10068
r 4.02987 0 8 tcp 1040 ------- 0 4.2 8.0 490 10069
r 4.064814 0 8 tcp 1040 ------- 0 4.2 8.0 491 10160
r 4.065646 0 8 tcp 1040 ------- 0 4.2 8.0 492 10161
r 4.066478 0 8 tcp 1040 ------- 0 4.2 8.0 493 10162
r 4.06731 0 8 tcp 1040 ------- 0 4.2 8.0 494 10163
r 4.068142 0 8 tcp 1040 ------- 0 4.2 8.0 495 10164
r 4.068974 0 8 tcp 1040 ------- 0 4.2 8.0 496 10165
r 4.069806 0 8 tcp 1040 ------- 0 4.2 8.0 497 10166
r 4.070638 0 8 tcp 1040 ------- 0 4.2 8.0 498 10167
r 4.07147 0 8 tcp 1040 ------- 0 4.2 8.0 499 10168
r 4.072302 0 8 tcp 1040 ------- 0 4.2 8.0 500 10169
r 4.119726 0 8 tcp 1040 ------- 0 4.2 8.0 501 10307
r 4.120558 0 8 tcp 1040 ------- 0 4.2 8.0 502 10309
r 4.12139 0 8 tcp 1040 ------- 0 4.2 8.0 503 10311
r 4.122222 0 8 tcp 1040 ------- 0 4.2 8.0 504 10313
r 4.123054 0 8 tcp 1040 ------- 0 4.2 8.0 505 10315
r 4.123886 0 8 tcp 1040 ------- 0 4.2 8.0 506 10317
r 4.124718 0 8 tcp 1040 ------- 0 4.2 8.0 507 10319
r 4.12555 0 8 tcp 1040 ------- 0 4.2 8.0 508 10321
r 4.126382 0 8 tcp 1040 ------- 0 4.2 8.0 509 10338
r 4.127214 0 8 tcp 1040 ------- 0 4.2 8.0 510 10339
r 4.128046 0 8 tcp 1040 ------- 0 4.2 8.0 511 10340
r 4.17963 0 8 tcp 1040 ------- 0 4.2 8.0 512 10485
r 4.180462 0 8 tcp 1040 ------- 0 4.2 8.0 513 10487
r 4.181294 0 8 tcp 1040 ------- 0 4.2 8.0 514 10489
r 4.182126 0 8 tcp 1040 ------- 0 4.2 8.0 515 10491
r 4.182958 0 8 tcp 1040 ------- 0 4.2 8.0 516 10493
r 4.18379 0 8 tcp 1040 ------- 0 4.2 8.0 517 10495
r 4.184622 0 8 tcp 1040 ------- 0 4.2 8.0 518 10497
r 4.185454 0 8 tcp 1040 ------- 0 4.2 8.0 519 10514
r 4.186286 0 8 tcp 1040 ------- 0 4.2 8.0 520 10515
r 4.187118 0 8 tcp 1040 ------- 0 4.2 8.0 521 10516
r 4.18795 0 8 tcp 1040 ------- 0 4.2 8.0 522 10517
r 4.245358 0 8 tcp 1040 ------- 0 4.2 8.0 523 10691
r 4.24619 0 8 tcp 1040 ------- 0 4.2 8.0 524 10692
r 4.247022 0 8 tcp 1040 ------- 0 4.2 8.0 525 10693
r 4.247854 0 8 tcp 1040 ------- 0 4.2 8.0 526 10694
r 4.248686 0 8 tcp 1040 ------- 0 4.2 8.0 527 10695
r 4.249518 0 8 tcp 1040 ------- 0 4.2 8.0 528 10696
r 4.25035 0 8 tcp 1040 ------- 0 4.2 8.0 529 10697
r 4.251182 0 8 tcp 1040 ------- 0 4.2 8.0 530 10698
r 4.252014 0 8 tcp 1040 ------- 0 4.2 8.0 531 10699
r 4.252846 0 8 tcp 1040 ------- 0 4.2 8.0 532 10700
r 4.253678 0 8 tcp 1040 ------- 0 4.2 8.0 533 10701
r 4.25451 0 8 tcp 1040 ------- 0 4.2 8.0 534 10702
r 4.311086 0 8 tcp 1040 ------- 0 4.2 8.0 535 10882
r 4.311918 0 8 tcp 1040 ------- 0 4.2 8.0 536 10884
r 4.31275 0 8 tcp 1040 ------- 0 4.2 8.0 537 10885
r 4.313582 0 8 tcp 1040 ------- 0 4.2 8.0 538 10887
r 4.314414 0 8 tcp 1040 ------- 0 4.2 8.0 541 10913
r 4.315246 0 8 tcp 1040 ------- 0 4.2 8.0 542 10915
r 4.316078 0 8 tcp 1040 ------- 0 4.2 8.0 543 10917
r 4.31691 0 8 tcp 1040 ------- 0 4.2 8.0 544 10919
r 4.317742 0 8 tcp 1040 ------- 0 4.2 8.0 545 10921
r 4.318574 0 8 tcp 1040 ------- 0 4.2 8.0 546 10923
r 4.319406 0 8 tcp 1040 ------- 0 4.2 8.0 547 10925
r 4.372654 0 8 tcp 1040 ------- 0 4.2 8.0 548 11099
r 4.373486 0 8 tcp 1040 ------- 0 4.2 8.0 549 11101
r 4.374318 0 8 tcp 1040 ------- 0 4.2 8.0 550 11118
r 4.37515 0 8 tcp 1040 ------- 0 4.2 8.0 551 11119
r 4.375982 0 8 tcp 1040 ------- 0 4.2 8.0 552 11120
r 4.376814 0 8 tcp 1040 ------- 0 4.2 8.0 553 11121
r 4.377646 0 8 tcp 1040 ------- 0 4.2 8.0 554 11122
r 4.378478 0 8 tcp 1040 ---A--- 0 4.2 8.0 539 11123
r 4.42091 0 8 tcp 1040 ------- 0 4.2 8.0 540 11279
r 4.421742 0 8 tcp 1040 ------- 0 4.2 8.0 541 11280
r 4.468334 0 8 tcp 1040 ------- 0 4.2 8.0 555 11440
r 4.469166 0 8 tcp 1040 ------- 0 4.2 8.0 556 11441
r 4.469998 0 8 tcp 1040 ------- 0 4.2 8.0 557 11442
r 4.47083 0 8 tcp 1040 ------- 0 4.2 8.0 558 11443
r 4.527406 0 8 tcp 1040 ------- 0 4.2 8.0 559 11594
r 4.528238 0 8 tcp 1040 ------- 0 4.2 8.0 560 11596
r 4.52907 0 8 tcp 1040 ------- 0 4.2 8.0 561 11597
r 4.529902 0 8 tcp 1040 ------- 0 4.2 8.0 562 11599
r 4.530734 0 8 tcp 1040 ------- 0 4.2 8.0 563 11600
r 4.531566 0 8 tcp 1040 ------- 0 4.2 8.0 564 11602
r 4.532398 0 8 tcp 1040 ------- 0 4.2 8.0 565 11603
r 4.592302 0 8 tcp 1040 ------- 0 4.2 8.0 566 11805
r 4.593134 0 8 tcp 1040 ------- 0 4.2 8.0 567 11806
r 4.593966 0 8 tcp 1040 ------- 0 4.2 8.0 568 11807
r 4.594798 0 8 tcp 1040 ------- 0 4.2 8.0 569 11808
r 4.59563 0 8 tcp 1040 ------- 0 4.2 8.0 570 11809
r 4.596462 0 8 tcp 1040 ------- 0 4.2 8.0 571 11810
r 4.597294 0 8 tcp 1040 ------- 0 4.2 8.0 572 11811
r 4.650542 0 8 tcp 1040 ------- 0 4.2 8.0 573 11982
r 4.651374 0 8 tcp 1040 ------- 0 4.2 8.0 574 11983
r 4.652206 0 8 tcp 1040 ------- 0 4.2 8.0 575 11984
r 4.653038 0 8 tcp 1040 ------- 0 4.2 8.0 576 11986
r 4.65387 0 8 tcp 1040 ------- 0 4.2 8.0 577 11988
r 4.654702 0 8 tcp 1040 ------- 0 4.2 8.0 578 11990