r 4.181883 0 8 tcp 40 ------- 0 4.2 8.0 0 3360
r 4.206012 0 8 tcp 1040 ------- 0 4.2 8.0 1 3362
r 4.206844 0 8 tcp 1040 ------- 0 4.2 8.0 2 3363
r 4.230141 0 8 tcp 1040 ------- 0 4.2 8.0 3 3366
r 4.230973 0 8 tcp 1040 ------- 0 4.2 8.0 4 3367
r 4.231805 0 8 tcp 1040 ------- 0 4.2 8.0 5 3368
r 4.232637 0 8 tcp 1040 ------- 0 4.2 8.0 6 3369
r 4.25427 0 8 tcp 1040 ------- 0 4.2 8.0 7 3374
r 4.255102 0 8 tcp 1040 ------- 0 4.2 8.0 8 3375
r 4.255934 0 8 tcp 1040 ------- 0 4.2 8.0 9 3376
r 4.256766 0 8 tcp 1040 ------- 0 4.2 8.0 10 3377
r 4.257598 0 8 tcp 1040 ------- 0 4.2 8.0 11 3378
r 4.25843 0 8 tcp 1040 ------- 0 4.2 8.0 12 3379
r 4.259262 0 8 tcp 1040 ------- 0 4.2 8.0 13 3380
r 4.260094 0 8 tcp 1040 ------- 0 4.2 8.0 14 3381
r 4.278399 0 8 tcp 1040 ------- 0 4.2 8.0 15 3390
r 4.279231 0 8 tcp 1040 ------- 0 4.2 8.0 16 3391
r 4.280063 0 8 tcp 1040 ------- 0 4.2 8.0 17 3392
r 4.280895 0 8 tcp 1040 ------- 0 4.2 8.0 18 3393
r 4.281727 0 8 tcp 1040 ------- 0 4.2 8.0 19 3394
r 4.282559 0 8 tcp 1040 ------- 0 4.2 8.0 20 3395
r 4.283391 0 8 tcp 1040 ------- 0 4.2 8.0 21 3396
r 4.284223 0 8 tcp 1040 ------- 0 4.2 8.0 22 3397
r 4.285055 0 8 tcp 1040 ------- 0 4.2 8.0 23 3398
r 4.285887 0 8 tcp 1040 ------- 0 4.2 8.0 24 3399
r 4.286719 0 8 tcp 1040 ------- 0 4.2 8.0 25 3400
r 4.287551 0 8 tcp 1040 ------- 0 4.2 8.0 26 3401
r 4.288383 0 8 tcp 1040 ------- 0 4.2 8.0 27 3402
r 4.289215 0 8 tcp 1040 ------- 0 4.2 8.0 28 3403
r 4.290047 0 8 tcp 1040 ------- 0 4.2 8.0 29 3404
r 4.290879 0 8 tcp 1040 ------- 0 4.2 8.0 30 3405
r 4.302527 0 8 tcp 1040 ------- 0 4.2 8.0 31 3420
r 4.303359 0 8 tcp 1040 ------- 0 4.2 8.0 32 3421
r 4.304191 0 8 tcp 1040 ------- 0 4.2 8.0 33 3423
r 4.305023 0 8 tcp 1040 ------- 0 4.2 8.0 34 3424
r 4.305855 0 8 tcp 1040 ------- 0 4.2 8.0 35 3426
r 4.306687 0 8 tcp 1040 ------- 0 4.2 8.0 36 3427
r 4.307519 0 8 tcp 1040 ------- 0 4.2 8.0 37 3428
r 4.308351 0 8 tcp 1040 ------- 0 4.2 8.0 38 3429
r 4.309183 0 8 tcp 1040 ------- 0 4.2 8.0 39 3430
r 4.310015 0 8 tcp 1040 ------- 0 4.2 8.0 40 3431
r 4.310847 0 8 tcp 1040 ------- 0 4.2 8.0 41 3432
r 4.311679 0 8 tcp 1040 ------- 0 4.2 8.0 42 3433
r 4.312511 0 8 tcp 1040 ------- 0 4.2 8.0 43 3434
r 4.313343 0 8 tcp 1040 ------- 0 4.2 8.0 44 3435
r 4.314175 0 8 tcp 1040 ------- 0 4.2 8.0 45 3436
r 4.315007 0 8 tcp 1040 ------- 0 4.2 8.0 46 3437
r 4.315839 0 8 tcp 1040 ------- 0 4.2 8.0 47 3438
r 4.316671 0 8 tcp 1040 ------- 0 4.2 8.0 48 3439
r 4.317503 0 8 tcp 1040 ------- 0 4.2 8.0 49 3440
r 4.318335 0 8 tcp 1040 ------- 0 4.2 8.0 50 3441
r 4.326656 0 8 tcp 1040 ------- 0 4.2 8.0 51 3456
r 4.327488 0 8 tcp 1040 ------- 0 4.2 8.0 52 3458
r 4.32832 0 8 tcp 1040 ------- 0 4.2 8.0 53 3460
r 4.329152 0 8 tcp 1040 ------- 0 4.2 8.0 54 3462
r 4.329984 0 8 tcp 1040 ------- 0 4.2 8.0 55 3464
r 4.330816 0 8 tcp 1040 ------- 0 4.2 8.0 56 3466
r 4.331648 0 8 tcp 1040 ------- 0 4.2 8.0 57 3468
r 4.33248 0 8 tcp 1040 ------- 0 4.2 8.0 58 3469
r 4.333312 0 8 tcp 1040 ------- 0 4.2 8.0 59 3470
r 4.334144 0 8 tcp 1040 ------- 0 4.2 8.0 60 3471
r 4.334976 0 8 tcp 1040 ------- 0 4.2 8.0 61 3472
r 4.335808 0 8 tcp 1040 ------- 0 4.2 8.0 62 3473
r 4.33664 0 8 tcp 1040 ------- 0 4.2 8.0 63 3474
r 4.337472 0 8 tcp 1040 ------- 0 4.2 8.0 64 3475
r 4.338304 0 8 tcp 1040 ------- 0 4.2 8.0 65 3476
r 4.339136 0 8 tcp 1040 ------- 0 4.2 8.0 66 3477
r 4.339968 0 8 tcp 1040 ------- 0 4.2 8.0 67 3479
r 4.3408 0 8 tcp 1040 ------- 0 4.2 8.0 68 3481
r 4.341632 0 8 tcp 1040 ------- 0 4.2 8.0 69 3483
r 4.342464 0 8 tcp 1040 ------- 0 4.2 8.0 70 3485
r 4.350785 0 8 tcp 1040 ------- 0 4.2 8.0 71 3496
r 4.351617 0 8 tcp 1040 ------- 0 4.2 8.0 72 3498
r 4.352449 0 8 tcp 1040 ------- 0 4.2 8.0 73 3500
r 4.353281 0 8 tcp 1040 ------- 0 4.2 8.0 74 3502
r 4.354113 0 8 tcp 1040 ------- 0 4.2 8.0 75 3504
r 4.354945 0 8 tcp 1040 ------- 0 4.2 8.0 76 3506
r 4.355777 0 8 tcp 1040 ------- 0 4.2 8.0 77 3508
r 4.356609 0 8 tcp 1040 ------- 0 4.2 8.0 78 3509
r 4.357441 0 8 tcp 1040 ------- 0 4.2 8.0 79 3510
r 4.358273 0 8 tcp 1040 ------- 0 4.2 8.0 80 3511
r 4.359105 0 8 tcp 1040 ------- 0 4.2 8.0 81 3512
r 4.359937 0 8 tcp 1040 ------- 0 4.2 8.0 82 3513
r 4.360769 0 8 tcp 1040 ------- 0 4.2 8.0 83 3514
r 4.361601 0 8 tcp 1040 ------- 0 4.2 8.0 84 3515
r 4.362433 0 8 tcp 1040 ------- 0 4.2 8.0 85 3516
r 4.363265 0 8 tcp 1040 ------- 0 4.2 8.0 86 3517
r 4.364097 0 8 tcp 1040 ------- 0 4.2 8.0 87 3519
r 4.364929 0 8 tcp 1040 ------- 0 4.2 8.0 88 3521
r 4.365761 0 8 tcp 1040 ------- 0 4.2 8.0 89 3523
r 4.366593 0 8 tcp 1040 ------- 0 4.2 8.0 90 3525
r 4.374914 0 8 tcp 1040 ------- 0 4.2 8.0 91 3536
r 4.375746 0 8 tcp 1040 ------- 0 4.2 8.0 92 3538
r 4.376578 0 8 tcp 1040 ------- 0 4.2 8.0 93 3540
r 4.37741 0 8 tcp 1040 ------- 0 4.2 8.0 94 3542
r 4.378242 0 8 tcp 1040 ------- 0 4.2 8.0 95 3544
r 4.379074 0 8 tcp 1040 ------- 0 4.2 8.0 96 3546
r 4.379906 0 8 tcp 1040 ------- 0 4.2 8.0 97 3548
r 4.380738 0 8 tcp 1040 ------- 0 4.2 8.0 98 3549
r 4.38157 0 8 tcp 1040 ------- 0 4.2 8.0 99 3550
r 4.382402 0 8 tcp 1040 ------- 0 4.2 8.0 100 3551
r 4.383234 0 8 tcp 1040 ------- 0 4.2 8.0 101 3552
r 4.384066 0 8 tcp 1040 ------- 0 4.2 8.0 102 3553
r 4.384898 0 8 tcp 1040 ------- 0 4.2 8.0 103 3554
r 4.38573 0 8 tcp 1040 ------- 0 4.2 8.0 104 3555
r 4.386562 0 8 tcp 1040 ------- 0 4.2 8.0 105 3556
r 4.387394 0 8 tcp 1040 ------- 0 4.2 8.0 106 3557
r 4.388226 0 8 tcp 1040 ------- 0 4.2 8.0 107 3559
r 4.389058 0 8 tcp 1040 ------- 0 4.2 8.0 108 3561
r 4.38989 0 8 tcp 1040 ------- 0 4.2 8.0 109 3563
r 4.390722 0 8 tcp 1040 ------- 0 4.2 8.0 110 3565
r 4.399043 0 8 tcp 1040 ------- 0 4.2 8.0 111 3576
r 4.399875 0 8 tcp 1040 ------- 0 4.2 8.0 112 3578
r 4.400707 0 8 tcp 1040 ------- 0 4.2 8.0 113 3580
r 4.401539 0 8 tcp 1040 ------- 0 4.2 8.0 114 3582
r 4.402371 0 8 tcp 1040 ------- 0 4.2 8.0 115 3584
r 4.403203 0 8 tcp 1040 ------- 0 4.2 8.0 116 3586
r 4.404035 0 8 tcp 1040 ------- 0 4.2 8.0 117 3588
r 4.404867 0 8 tcp 1040 ------- 0 4.2 8.0 118 3589
r 4.405699 0 8 tcp 1040 ------- 0 4.2 8.0 119 3590
r 4.406531 0 8 tcp 1040 ------- 0 4.2 8.0 120 3591
r 4.407363 0 8 tcp 1040 ------- 0 4.2 8.0 121 3592
r 4.408195 0 8 tcp 1040 ------- 0 4.2 8.0 122 3593
r 4.409027 0 8 tcp 1040 ------- 0 4.2 8.0 123 3594
r 4.409859 0 8 tcp 1040 ------- 0 4.2 8.0 124 3595
r 4.410691 0 8 tcp 1040 ------- 0 4.2 8.0 125 3596
r 4.411523 0 8 tcp 1040 ------- 0 4.2 8.0 126 3597
r 4.412355 0 8 tcp 1040 ------- 0 4.2 8.0 127 3599
r 4.413187 0 8 tcp 1040 ------- 0 4.2 8.0 128 3601
r 4.414019 0 8 tcp 1040 ------- 0 4.2 8.0 129 3603
r 4.414851 0 8 tcp 1040 ------- 0 4.2 8.0 130 3605
r 4.423171 0 8 tcp 1040 ------- 0 4.2 8.0 131 3616
r 4.424003 0 8 tcp 1040 ------- 0 4.2 8.0 132 3618
r 4.424835 0 8 tcp 1040 ------- 0 4.2 8.0 133 3620
r 4.425667 0 8 tcp 1040 ------- 0 4.2 8.0 134 3622
r 4.426499 0 8 tcp 1040 ------- 0 4.2 8.0 135 3624
r 4.427331 0 8 tcp 1040 ------- 0 4.2 8.0 136 3626
r 4.428163 0 8 tcp 1040 ------- 0 4.2 8.0 137 3628
r 4.428995 0 8 tcp 1040 ------- 0 4.2 8.0 138 3629
r 4.429827 0 8 tcp 1040 ------- 0 4.2 8.0 139 3630
r 4.430659 0 8 tcp 1040 ------- 0 4.2 8.0 140 3631
r 4.431491 0 8 tcp 1040 ------- 0 4.2 8.0 141 3632
r 4.432323 0 8 tcp 1040 ------- 0 4.2 8.0 142 3633
r 4.433155 0 8 tcp 1040 ------- 0 4.2 8.0 143 3634
r 4.433987 0 8 tcp 1040 ------- 0 4.2 8.0 144 3635
r 4.434819 0 8 tcp 1040 ------- 0 4.2 8.0 145 3636
r 4.435651 0 8 tcp 1040 ------- 0 4.2 8.0 146 3637
r 4.436483 0 8 tcp 1040 ------- 0 4.2 8.0 147 3639
r 4.437315 0 8 tcp 1040 ------- 0 4.2 8.0 148 3641
r 4.438147 0 8 tcp 1040 ------- 0 4.2 8.0 149 3643
r 4.438979 0 8 tcp 1040 ------- 0 4.2 8.0 150 3645
r 4.4473 0 8 tcp 1040 ------- 0 4.2 8.0 151 3656
r 4.448132 0 8 tcp 1040 ------- 0 4.2 8.0 152 3658
r 4.448964 0 8 tcp 1040 ------- 0 4.2 8.0 153 3660
r 4.449796 0 8 tcp 1040 ------- 0 4.2 8.0 154 3662
r 4.450628 0 8 tcp 1040 ------- 0 4.2 8.0 155 3664
r 4.45146 0 8 tcp 1040 ------- 0 4.2 8.0 156 3666
r 4.452292 0 8 tcp 1040 ------- 0 4.2 8.0 157 3668
r 4.453124 0 8 tcp 1040 ------- 0 4.2 8.0 158 3669
r 4.453956 0 8 tcp 1040 ------- 0 4.2 8.0 159 3670
r 4.454788 0 8 tcp 1040 ------- 0 4.2 8.0 160 3671
r 4.45562 0 8 tcp 1040 ------- 0 4.2 8.0 161 3672
r 4.456452 0 8 tcp 1040 ------- 0 4.2 8.0 162 3673
r 4.457284 0 8 tcp 1040 ------- 0 4.2 8.0 163 3674
r 4.458116 0 8 tcp 1040 ------- 0 4.2 8.0 164 3675
r 4.458948 0 8 tcp 1040 ------- 0 4.2 8.0 165 3676
r 4.45978 0 8 tcp 1040 ------- 0 4.2 8.0 166 3677
r 4.460612 0 8 tcp 1040 ------- 0 4.2 8.0 167 3679
r 4.461444 0 8 tcp 1040 ------- 0 4.2 8.0 168 3681
r 4.462276 0 8 tcp 1040 ------- 0 4.2 8.0 169 3683
r 4.463108 0 8 tcp 1040 ------- 0 4.2 8.0 170 3685
r 4.471429 0 8 tcp 1040 ------- 0 4.2 8.0 171 3696
r 4.472293 0 8 tcp 1040 ------- 0 4.2 8.0 172 3699
r 4.473125 0 8 tcp 1040 ------- 0 4.2 8.0 173 3701
r 4.473957 0 8 tcp 1040 ------- 0 4.2 8.0 174 3703
r 4.474789 0 8 tcp 1040 ------- 0 4.2 8.0 175 3705
r 4.475621 0 8 tcp 1040 ------- 0 4.2 8.0 176 3707
r 4.476453 0 8 tcp 1040 ------- 0 4.2 8.0 177 3709
r 4.477285 0 8 tcp 1040 ------- 0 4.2 8.0 178 3710
r 4.478117 0 8 tcp 1040 ------- 0 4.2 8.0 179 3711
r 4.478949 0 8 tcp 1040 ------- 0 4.2 8.0 180 3712
r 4.479781 0 8 tcp 1040 ------- 0 4.2 8.0 181 3713
r 4.480613 0 8 tcp 1040 ------- 0 4.2 8.0 182 3714
r 4.481445 0 8 tcp 1040 ------- 0 4.2 8.0 183 3715
r 4.482277 0 8 tcp 1040 ------- 0 4.2 8.0 184 3716
r 4.483109 0 8 tcp 1040 ------- 0 4.2 8.0 185 3717
r 4.483941 0 8 tcp 1040 ------- 0 4.2 8.0 186 3719
r 4.484773 0 8 tcp 1040 ------- 0 4.2 8.0 187 3721
r 4.485605 0 8 tcp 1040 ------- 0 4.2 8.0 188 3723
r 4.486437 0 8 tcp 1040 ------- 0 4.2 8.0 189 3725
r 4.487269 0 8 tcp 1040 ------- 0 4.2 8.0 190 3727
r 4.496454 0 8 tcp 1040 ------- 0 4.2 8.0 191 3740
r 4.497286 0 8 tcp 1040 ------- 0 4.2 8.0 192 3742
r 4.498118 0 8 tcp 1040 ------- 0 4.2 8.0 193 3744
r 4.49895 0 8 tcp 1040 ------- 0 4.2 8.0 194 3746
r 4.499782 0 8 tcp 1040 ------- 0 4.2 8.0 195 3748
r 4.500614 0 8 tcp 1040 ------- 0 4.2 8.0 196 3750
r 4.501446 0 8 tcp 1040 ------- 0 4.2 8.0 197 3752
r 4.502278 0 8 tcp 1040 ------- 0 4.2 8.0 198 3753
r 4.50311 0 8 tcp 1040 ------- 0 4.2 8.0 199 3754
r 4.503942 0 8 tcp 1040 ------- 0 4.2 8.0 200 3755
r 4.504774 0 8 tcp 1040 ------- 0 4.2 8.0 201 3756
r 4.505606 0 8 tcp 1040 ------- 0 4.2 8.0 202 3757
r 4.506438 0 8 tcp 1040 ------- 0 4.2 8.0 203 3758
r 4.50727 0 8 tcp 1040 ------- 0 4.2 8.0 204 3759
r 4.508102 0 8 tcp 1040 ------- 0 4.2 8.0 205 3760
r 4.508934 0 8 tcp 1040 ------- 0 4.2 8.0 206 3762
r 4.509766 0 8 tcp 1040 ------- 0 4.2 8.0 207 3764
r 4.510598 0 8 tcp 1040 ------- 0 4.2 8.0 208 3766
r 4.51143 0 8 tcp 1040 ------- 0 4.2 8.0 209 3768
r 4.512262 0 8 tcp 1040 ------- 0 4.2 8.0 210 3770
r 4.522247 0 8 tcp 1040 ------- 0 4.2 8.0 211 3786
r 4.523079 0 8 tcp 1040 ------- 0 4.2 8.0 212 3788
r 4.523911 0 8 tcp 1040 ------- 0 4.2 8.0 213 3790
r 4.524743 0 8 tcp 1040 ------- 0 4.2 8.0 214 3792
r 4.525575 0 8 tcp 1040 ------- 0 4.2 8.0 215 3794
r 4.526407 0 8 tcp 1040 ------- 0 4.2 8.0 216 3796
r 4.527239 0 8 tcp 1040 ------- 0 4.2 8.0 217 3798
r 4.528071 0 8 tcp 1040 ------- 0 4.2 8.0 218 3799
r 4.528903 0 8 tcp 1040 ------- 0 4.2 8.0 219 3800
r 4.529735 0 8 tcp 1040 ------- 0 4.2 8.0 220 3801
r 4.530567 0 8 tcp 1040 ------- 0 4.2 8.0 221 3802
r 4.531399 0 8 tcp 1040 ------- 0 4.2 8.0 222 3803
r 4.532231 0 8 tcp 1040 ------- 0 4.2 8.0 223 3804
r 4.533063 0 8 tcp 1040 ------- 0 4.2 8.0 224 3805
r 4.533895 0 8 tcp 1040 ------- 0 4.2 8.0 225 3807
r 4.534727 0 8 tcp 1040 ------- 0 4.2 8.0 226 3809
r 4.535559 0 8 tcp 1040 ------- 0 4.2 8.0 227 3811
r 4.536391 0 8 tcp 1040 ------- 0 4.2 8.0 228 3813
r 4.537223 0 8 tcp 1040 ------- 0 4.2 8.0 229 3815
r 4.538055 0 8 tcp 1040 ------- 0 4.2 8.0 230 3817
r 4.549703 0 8 tcp 1040 ------- 0 4.2 8.0 231 3838
r 4.550535 0 8 tcp 1040 ------- 0 4.2 8.0 232 3840
r 4.551367 0 8 tcp 1040 ------- 0 4.2 8.0 233 3842
r 4.552199 0 8 tcp 1040 ------- 0 4.2 8.0 234 3844
r 4.553031 0 8 tcp 1040 ------- 0 4.2 8.0 235 3846
r 4.553863 0 8 tcp 1040 ------- 0 4.2 8.0 236 3848
r 4.554695 0 8 tcp 1040 ------- 0 4.2 8.0 237 3850
r 4.555527 0 8 tcp 1040 ------- 0 4.2 8.0 238 3851
r 4.556359 0 8 tcp 1040 ------- 0 4.2 8.0 239 3852
r 4.557191 0 8 tcp 1040 ------- 0 4.2 8.0 240 3853
r 4.558023 0 8 tcp 1040 ------- 0 4.2 8.0 241 3854
r 4.558855 0 8 tcp 1040 ------- 0 4.2 8.0 242 3855
r 4.559687 0 8 tcp 1040 ------- 0 4.2 8.0 243 3857
r 4.560519 0 8 tcp 1040 ------- 0 4.2 8.0 244 3859
r 4.561351 0 8 tcp 1040 ------- 0 4.2 8.0 245 3861
r 4.562183 0 8 tcp 1040 ------- 0 4.2 8.0 246 3863
r 4.563015 0 8 tcp 1040 ------- 0 4.2 8.0 247 3865
r 4.563847 0 8 tcp 1040 ------- 0 4.2 8.0 248 3867
r 4.564679 0 8 tcp 1040 ------- 0 4.2 8.0 249 3869
r 4.565511 0 8 tcp 1040 ------- 0 4.2 8.0 250 3871
r 4.580488 0 8 tcp 1040 ------- 0 4.2 8.0 251 3902
r 4.58132 0 8 tcp 1040 ------- 0 4.2 8.0 252 3904
r 4.582152 0 8 tcp 1040 ------- 0 4.2 8.0 253 3906
r 4.582984 0 8 tcp 1040 ------- 0 4.2 8.0 254 3908
r 4.583816 0 8 tcp 1040 ------- 0 4.2 8.0 255 3910
r 4.584648 0 8 tcp 1040 ------- 0 4.2 8.0 256 3912
r 4.58548 0 8 tcp 1040 ------- 0 4.2 8.0 257 3914
r 4.586312 0 8 tcp 1040 ------- 0 4.2 8.0 258 3915
r 4.587144 0 8 tcp 1040 ------- 0 4.2 8.0 259 3917
r 4.587976 0 8 tcp 1040 ------- 0 4.2 8.0 260 3919
r 4.588808 0 8 tcp 1040 ------- 0 4.2 8.0 261 3921
r 4.58964 0 8 tcp 1040 ------- 0 4.2 8.0 262 3923
r 4.590472 0 8 tcp 1040 ------- 0 4.2 8.0 263 3925
r 4.591304 0 8 tcp 1040 ------- 0 4.2 8.0 264 3927
r 4.592136 0 8 tcp 1040 ------- 0 4.2 8.0 265 3929
r 4.592968 0 8 tcp 1040 ------- 0 4.2 8.0 266 3931
r 4.5938 0 8 tcp 1040 ------- 0 4.2 8.0 267 3933
r 4.594632 0 8 tcp 1040 ------- 0 4.2 8.0 268 3935
r 4.595464 0 8 tcp 1040 ------- 0 4.2 8.0 269 3937
r 4.596296 0 8 tcp 1040 ------- 0 4.2 8.0 270 3939
r 4.613768 0 8 tcp 1040 ------- 0 4.2 8.0 271 3980
r 4.6146 0 8 tcp 1040 ------- 0 4.2 8.0 272 3982
r 4.615432 0 8 tcp 1040 ------- 0 4.2 8.0 273 3984
r 4.616264 0 8 tcp 1040 ------- 0 4.2 8.0 274 3986
r 4.617096 0 8 tcp 1040 ------- 0 4.2 8.0 275 3988
r 4.617928 0 8 tcp 1040 ------- 0 4.2 8.0 276 3991
r 4.61876 0 8 tcp 1040 ------- 0 4.2 8.0 277 3992
r 4.619592 0 8 tcp 1040 ------- 0 4.2 8.0 278 3994
r 4.620424 0 8 tcp 1040 ------- 0 4.2 8.0 279 3996
r 4.621256 0 8 tcp 1040 ------- 0 4.2 8.0 280 3998
r 4.622088 0 8 tcp 1040 ------- 0 4.2 8.0 281 4000
r 4.62292 0 8 tcp 1040 ------- 0 4.2 8.0 282 4002
r 4.623752 0 8 tcp 1040 ------- 0 4.2 8.0 283 4004
r 4.624584 0 8 tcp 1040 ------- 0 4.2 8.0 284 4006
r 4.625416 0 8 tcp 1040 ------- 0 4.2 8.0 285 4008
r 4.626248 0 8 tcp 1040 ------- 0 4.2 8.0 286 4010
r 4.62708 0 8 tcp 1040 ------- 0 4.2 8.0 287 4012
r 4.627912 0 8 tcp 1040 ------- 0 4.2 8.0 288 4014
r 4.628744 0 8 tcp 1040 ------- 0 4.2 8.0 289 4016
r 4.629576 0 8 tcp 1040 ------- 0 4.2 8.0 290 4018
r 4.647048 0 8 tcp 1040 ------- 0 4.2 8.0 291 4062
r 4.64788 0 8 tcp 1040 ------- 0 4.2 8.0 292 4064
r 4.648712 0 8 tcp 1040 ------- 0 4.2 8.0 293 4066
r 4.649544 0 8 tcp 1040 ------- 0 4.2 8.0 294 4068
r 4.650376 0 8 tcp 1040 ------- 0 4.2 8.0 295 4070
r 4.651208 0 8 tcp 1040 ------- 0 4.2 8.0 296 4072
r 4.65204 0 8 tcp 1040 ------- 0 4.2 8.0 297 4074
r 4.652872 0 8 tcp 1040 ------- 0 4.2 8.0 298 4076
r 4.653704 0 8 tcp 1040 ------- 0 4.2 8.0 299 4078
r 4.654536 0 8 tcp 1040 ------- 0 4.2 8.0 300 4080
r 4.655368 0 8 tcp 1040 ------- 0 4.2 8.0 301 4082
r 4.6562 0 8 tcp 1040 ------- 0 4.2 8.0 302 4084
r 4.657032 0 8 tcp 1040 ------- 0 4.2 8.0 303 4086
r 4.657864 0 8 tcp 1040 ------- 0 4.2 8.0 304 4088
r 4.658696 0 8 tcp 1040 ------- 0 4.2 8.0 305 4090
r 4.659528 0 8 tcp 1040 ------- 0 4.2 8.0 306 4094
r 4.66036 0 8 tcp 1040 ------- 0 4.2 8.0 307 4096
r 4.661192 0 8 tcp 1040 ------- 0 4.2 8.0 308 4098
r 4.662024 0 8 tcp 1040 ------- 0 4.2 8.0 309 4100
r 4.662856 0 8 tcp 1040 ------- 0 4.2 8.0 310 4102
r 4.680328 0 8 tcp 1040 ------- 0 4.2 8.0 311 4144
r 4.68116 0 8 tcp 1040 ------- 0 4.2 8.0 312 4146
r 4.681992 0 8 tcp 1040 ------- 0 4.2 8.0 313 4148
r 4.682824 0 8 tcp 1040 ------- 0 4.2 8.0 314 4150
r 4.683656 0 8 tcp 1040 ------- 0 4.2 8.0 315 4152
r 4.684488 0 8 tcp 1040 ------- 0 4.2 8.0 316 4154
r 4.68532 0 8 tcp 1040 ------- 0 4.2 8.0 317 4156
r 4.686152 0 8 tcp 1040 ------- 0 4.2 8.0 318 4160
r 4.686984 0 8 tcp 1040 ------- 0 4.2 8.0 319 4162
r 4.687816 0 8 tcp 1040 ------- 0 4.2 8.0 320 4164
r 4.688648 0 8 tcp 1040 ------- 0 4.2 8.0 321 4166
r 4.68948 0 8 tcp 1040 ------- 0 4.2 8.0 322 4168
r 4.690312 0 8 tcp 1040 ------- 0 4.2 8.0 323 4170
r 4.691144 0 8 tcp 1040 ------- 0 4.2 8.0 324 4172
r 4.691976 0 8 tcp 1040 ------- 0 4.2 8.0 325 4174
r 4.692808 0 8 tcp 1040 ------- 0 4.2 8.0 326 4176
r 4.69364 0 8 tcp 1040 ------- 0 4.2 8.0 327 4178
r 4.694472 0 8 tcp 1040 ------- 0 4.2 8.0 328 4180
r 4.695304 0 8 tcp 1040 ------- 0 4.2 8.0 329 4182
r 4.696136 0 8 tcp 1040 ------- 0 4.2 8.0 330 4184
r 4.713608 0 8 tcp 1040 ------- 0 4.2 8.0 331 4228
r 4.71444 0 8 tcp 1040 ------- 0 4.2 8.0 332 4230
r 4.715272 0 8 tcp 1040 ------- 0 4.2 8.0 333 4232
r 4.716104 0 8 tcp 1040 ------- 0 4.2 8.0 334 4234
r 4.716936 0 8 tcp 1040 ------- 0 4.2 8.0 335 4236
r 4.717768 0 8 tcp 1040 ------- 0 4.2 8.0 336 4238
r 4.7186 0 8 tcp 1040 ------- 0 4.2 8.0 337 4240
r 4.719432 0 8 tcp 1040 ------- 0 4.2 8.0 338 4242
r 4.720264 0 8 tcp 1040 ------- 0 4.2 8.0 339 4244
r 4.721096 0 8 tcp 1040 ------- 0 4.2 8.0 340 4246
r 4.721928 0 8 tcp 1040 ------- 0 4.2 8.0 341 4248
r 4.72276 0 8 tcp 1040 ------- 0 4.2 8.0 342 4250
r 4.723592 0 8 tcp 1040 ------- 0 4.2 8.0 343 4252
r 4.724424 0 8 tcp 1040 ------- 0 4.2 8.0 344 4255
r 4.725256 0 8 tcp 1040 ------- 0 4.2 8.0 345 4257
r 4.726088 0 8 tcp 1040 ------- 0 4.2 8.0 346 4258
r 4.72692 0 8 tcp 1040 ------- 0 4.2 8.0 347 4260
r 4.727752 0 8 tcp 1040 ------- 0 4.2 8.0 348 4262
r 4.728584 0 8 tcp 1040 ------- 0 4.2 8.0 349 4264
r 4.729416 0 8 tcp 1040 ------- 0 4.2 8.0 350 4266
r 4.746888 0 8 tcp 1040 ------- 0 4.2 8.0 351 4310
r 4.74772 0 8 tcp 1040 ------- 0 4.2 8.0 352 4312
r 4.748552 0 8 tcp 1040 ------- 0 4.2 8.0 353 4314
r 4.749384 0 8 tcp 1040 ------- 0 4.2 8.0 354 4316
r 4.750216 0 8 tcp 1040 ------- 0 4.2 8.0 355 4318
r 4.751048 0 8 tcp 1040 ------- 0 4.2 8.0 356 4320
r 4.75188 0 8 tcp 1040 ------- 0 4.2 8.0 357 4323
r 4.752712 0 8 tcp 1040 ------- 0 4.2 8.0 358 4324
r 4.753544 0 8 tcp 1040 ------- 0 4.2 8.0 359 4326
r 4.754376 0 8 tcp 1040 ------- 0 4.2 8.0 360 4328
r 4.755208 0 8 tcp 1040 ------- 0 4.2 8.0 361 4330
r 4.75604 0 8 tcp 1040 ------- 0 4.2 8.0 362 4332
r 4.756872 0 8 tcp 1040 ------- 0 4.2 8.0 363 4334
r 4.757704 0 8 tcp 1040 ------- 0 4.2 8.0 364 4336
r 4.758536 0 8 tcp 1040 ------- 0 4.2 8.0 365 4338
r 4.759368 0 8 tcp 1040 ------- 0 4.2 8.0 366 4340
r 4.7602 0 8 tcp 1040 ------- 0 4.2 8.0 367 4342
r 4.761032 0 8 tcp 1040 ------- 0 4.2 8.0 368 4344
r 4.761864 0 8 tcp 1040 ------- 0 4.2 8.0 369 4346
r 4.762696 0 8 tcp 1040 ------- 0 4.2 8.0 370 4348
r 4.780168 0 8 tcp 1040 ------- 0 4.2 8.0 371 4392
r 4.781 0 8 tcp 1040 ------- 0 4.2 8.0 372 4394
r 4.781832 0 8 tcp 1040 ------- 0 4.2 8.0 373 4396
r 4.782664 0 8 tcp 1040 ------- 0 4.2 8.0 374 4398
r 4.783496 0 8 tcp 1040 ------- 0 4.2 8.0 375 4400
r 4.784328 0 8 tcp 1040 ------- 0 4.2 8.0 376 4402
r 4.78516 0 8 tcp 1040 ------- 0 4.2 8.0 377 4404
r 4.785992 0 8 tcp 1040 ------- 0 4.2 8.0 378 4406
r 4.786824 0 8 tcp 1040 ------- 0 4.2 8.0 379 4408
r 4.787656 0 8 tcp 1040 ------- 0 4.2 8.0 380 4410
r 4.788488 0 8 tcp 1040 ------- 0 4.2 8.0 381 4412
r 4.78932 0 8 tcp 1040 ------- 0 4.2 8.0 382 4414
r 4.790152 0 8 tcp 1040 ------- 0 4.2 8.0 383 4416
r 4.790984 0 8 tcp 1040 ------- 0 4.2 8.0 384 4418
r 4.791816 0 8 tcp 1040 ------- 0 4.2 8.0 385 4420
r 4.792648 0 8 tcp 1040 ------- 0 4.2 8.0 386 4422
r 4.79348 0 8 tcp 1040 ------- 0 4.2 8.0 387 4426
r 4.794312 0 8 tcp 1040 ------- 0 4.2 8.0 388 4428
r 4.795144 0 8 tcp 1040 ------- 0 4.2 8.0 389 4430
r 4.795976 0 8 tcp 1040 ------- 0 4.2 8.0 390 4432
r 4.813448 0 8 tcp 1040 ------- 0 4.2 8.0 391 4474
r 4.81428 0 8 tcp 1040 ------- 0 4.2 8.0 392 4476
r 4.815112 0 8 tcp 1040 ------- 0 4.2 8.0 393 4478
r 4.815944 0 8 tcp 1040 ------- 0 4.2 8.0 394 4480
r 4.816776 0 8 tcp 1040 ------- 0 4.2 8.0 395 4482
r 4.817608 0 8 tcp 1040 ------- 0 4.2 8.0 396 4484
r 4.81844 0 8 tcp 1040 ------- 0 4.2 8.0 397 4486
r 4.819272 0 8 tcp 1040 ------- 0 4.2 8.0 398 4488
r 4.820104 0 8 tcp 1040 ------- 0 4.2 8.0 399 4492
r 4.820936 0 8 tcp 1040 ------- 0 4.2 8.0 400 4494
r 4.821768 0 8 tcp 1040 ------- 0 4.2 8.0 401 4496
r 4.8226 0 8 tcp 1040 ------- 0 4.2 8.0 402 4498
r 4.823432 0 8 tcp 1040 ------- 0 4.2 8.0 403 4500
r 4.824264 0 8 tcp 1040 ------- 0 4.2 8.0 404 4502
r 4.825096 0 8 tcp 1040 ------- 0 4.2 8.0 405 4504
r 4.825928 0 8 tcp 1040 ------- 0 4.2 8.0 406 4506
r 4.82676 0 8 tcp 1040 ------- 0 4.2 8.0 407 4508
r 4.827592 0 8 tcp 1040 ------- 0 4.2 8.0 408 4510
r 4.828424 0 8 tcp 1040 ------- 0 4.2 8.0 409 4512
r 4.829256 0 8 tcp 1040 ------- 0 4.2 8.0 410 4514
r 4.846728 0 8 tcp 1040 ------- 0 4.2 8.0 411 4558
r 4.84756 0 8 tcp 1040 ------- 0 4.2 8.0 412 4560
r 4.848392 0 8 tcp 1040 ------- 0 4.2 8.0 413 4562
r 4.849224 0 8 tcp 1040 ------- 0 4.2 8.0 414 4564
r 4.850056 0 8 tcp 1040 ------- 0 4.2 8.0 415 4566
r 4.850888 0 8 tcp 1040 ------- 0 4.2 8.0 416 4568
r 4.85172 0 8 tcp 1040 ------- 0 4.2 8.0 417 4570
r 4.852552 0 8 tcp 1040 ------- 0 4.2 8.0 418 4572
r 4.853384 0 8 tcp 1040 ------- 0 4.2 8.0 419 4574
r 4.854216 0 8 tcp 1040 ------- 0 4.2 8.0 420 4576
r 4.855048 0 8 tcp 1040 ------- 0 4.2 8.0 421 4578
r 4.85588 0 8 tcp 1040 ------- 0 4.2 8.0 422 4580
r 4.856712 0 8 tcp 1040 ------- 0 4.2 8.0 423 4582
r 4.857544 0 8 tcp 1040 ------- 0 4.2 8.0 424 4584
r 4.858376 0 8 tcp 1040 ------- 0 4.2 8.0 425 4587
r 4.859208 0 8 tcp 1040 ------- 0 4.2 8.0 426 4589
r 4.86004 0 8 tcp 1040 ------- 0 4.2 8.0 427 4590
r 4.860872 0 8 tcp 1040 ------- 0 4.2 8.0 428 4592
r 4.861704 0 8 tcp 1040 ------- 0 4.2 8.0 429 4594
r 4.862536 0 8 tcp 1040 ------- 0 4.2 8.0 430 4596
r 4.880008 0 8 tcp 1040 ------- 0 4.2 8.0 431 4640
r 4.88084 0 8 tcp 1040 ------- 0 4.2 8.0 432 4642
r 4.881672 0 8 tcp 1040 ------- 0 4.2 8.0 433 4644
r 4.882504 0 8 tcp 1040 ------- 0 4.2 8.0 434 4646
r 4.883336 0 8 tcp 1040 ------- 0 4.2 8.0 435 4648
r 4.884168 0 8 tcp 1040 ------- 0 4.2 8.0 436 4650
r 4.885 0 8 tcp 1040 ------- 0 4.2 8.0 437 4652
r 4.885832 0 8 tcp 1040 ------- 0 4.2 8.0 438 4655
r 4.886664 0 8 tcp 1040 ------- 0 4.2 8.0 439 4656
r 4.887496 0 8 tcp 1040 ------- 0 4.2 8.0 440 4658
r 4.888328 0 8 tcp 1040 ------- 0 4.2 8.0 441 4660
r 4.88916 0 8 tcp 1040 ------- 0 4.2 8.0 442 4662
r 4.889992 0 8 tcp 1040 ------- 0 4.2 8.0 443 4664
r 4.890824 0 8 tcp 1040 ------- 0 4.2 8.0 444 4666
r 4.891656 0 8 tcp 1040 ------- 0 4.2 8.0 445 4668
r 4.892488 0 8 tcp 1040 ------- 0 4.2 8.0 446 4670
r 4.89332 0 8 tcp 1040 ------- 0 4.2 8.0 447 4672
r 4.894152 0 8 tcp 1040 ------- 0 4.2 8.0 448 4674
r 4.894984 0 8 tcp 1040 ------- 0 4.2 8.0 449 4676
r 4.895816 0 8 tcp 1040 ------- 0 4.2 8.0 450 4678
r 4.913288 0 8 tcp 1040 ------- 0 4.2 8.0 451 4722
r 4.91412 0 8 tcp 1040 ------- 0 4.2 8.0 452 4724
r 4.914952 0 8 tcp 1040 ------- 0 4.2 8.0 453 4726
r 4.915784 0 8 tcp 1040 ------- 0 4.2 8.0 454 4728
r 4.916616 0 8 tcp 1040 ------- 0 4.2 8.0 455 4730
r 4.917448 0 8 tcp 1040 ------- 0 4.2 8.0 456 4732
r 4.91828 0 8 tcp 1040 ------- 0 4.2 8.0 457 4734
r 4.919112 0 8 tcp 1040 ------- 0 4.2 8.0 458 4736
r 4.919944 0 8 tcp 1040 ------- 0 4.2 8.0 459 4738
r 4.920776 0 8 tcp 1040 ------- 0 4.2 8.0 460 4740
r 4.921608 0 8 tcp 1040 ------- 0 4.2 8.0 461 4742
r 4.92244 0 8 tcp 1040 ------- 0 4.2 8.0 462 4744
r 4.923272 0 8 tcp 1040 ------- 0 4.2 8.0 463 4746
r 4.924104 0 8 tcp 1040 ------- 0 4.2 8.0 464 4748
r 4.924936 0 8 tcp 1040 ------- 0 4.2 8.0 465 4750
r 4.925768 0 8 tcp 1040 ------- 0 4.2 8.0 466 4752
r 4.9266 0 8 tcp 1040 ------- 0 4.2 8.0 467 4754
r 4.927432 0 8 tcp 1040 ------- 0 4.2 8.0 468 4758
r 4.928264 0 8 tcp 1040 ------- 0 4.2 8.0 469 4760
r 4.929096 0 8 tcp 1040 ------- 0 4.2 8.0 470 4762
r 4.946568 0 8 tcp 1040 ------- 0 4.2 8.0 471 4804
r 4.9474 0 8 tcp 1040 ------- 0 4.2 8.0 472 4806
r 4.948232 0 8 tcp 1040 ------- 0 4.2 8.0 473 4808
r 4.949064 0 8 tcp 1040 ------- 0 4.2 8.0 474 4810
r 4.949896 0 8 tcp 1040 ------- 0 4.2 8.0 475 4812
r 4.950728 0 8 tcp 1040 ------- 0 4.2 8.0 476 4814
r 4.95156 0 8 tcp 1040 ------- 0 4.2 8.0 477 4816
r 4.952392 0 8 tcp 1040 ------- 0 4.2 8.0 478 4818
r 4.953224 0 8 tcp 1040 ------- 0 4.2 8.0 479 4820
r 4.954056 0 8 tcp 1040 ------- 0 4.2 8.0 480 4824
r 4.954888 0 8 tcp 1040 ------- 0 4.2 8.0 481 4826
r 4.95572 0 8 tcp 1040 ------- 0 4.2 8.0 482 4828
r 4.956552 0 8 tcp 1040 ------- 0 4.2 8.0 483 4830
r 4.957384 0 8 tcp 1040 ------- 0 4.2 8.0 484 4832
r 4.958216 0 8 tcp 1040 ------- 0 4.2 8.0 485 4834
r 4.959048 0 8 tcp 1040 ------- 0 4.2 8.0 486 4836
r 4.95988 0 8 tcp 1040 ------- 0 4.2 8.0 487 4838
r 4.960712 0 8 tcp 1040 ------- 0 4.2 8.0 488 4840
r 4.961544 0 8 tcp 1040 ------- 0 4.2 8.0 489 4842
r 4.962376 0 8 tcp 1040 ------- 0 4.2 8.0 490 4844
r 4.970697 0 8 tcp 1040 ------- 0 4.2 8.0 491 4866
r 4.971529 0 8 tcp 1040 ------- 0 4.2 8.0 492 4870
r 4.972361 0 8 tcp 1040 ------- 0 4.2 8.0 493 4872
r 4.973193 0 8 tcp 1040 ------- 0 4.2 8.0 494 4874
r 4.974025 0 8 tcp 1040 ------- 0 4.2 8.0 495 4876
r 4.974857 0 8 tcp 1040 ------- 0 4.2 8.0 496 4878
r 4.975689 0 8 tcp 1040 ------- 0 4.2 8.0 497 4880
r 4.976521 0 8 tcp 1040 ------- 0 4.2 8.0 498 4881
r 4.977353 0 8 tcp 1040 ------- 0 4.2 8.0 499 4882
r 4.978185 0 8 tcp 1040 ------- 0 4.2 8.0 500 4883
r 4.979017 0 8 tcp 1040 ------- 0 4.2 8.0 501 4884
r 4.979849 0 8 tcp 1040 ------- 0 4.2 8.0 502 4885
r 4.980681 0 8 tcp 1040 ------- 0 4.2 8.0 503 4886
r 4.981513 0 8 tcp 1040 ------- 0 4.2 8.0 504 4887
r 4.982345 0 8 tcp 1040 ------- 0 4.2 8.0 505 4888
r 4.984335 0 8 tcp 1040 ------- 0 4.2 8.0 506 4890
r 4.985167 0 8 tcp 1040 ------- 0 4.2 8.0 507 4891
r 4.985999 0 8 tcp 1040 ------- 0 4.2 8.0 508 4893
r 4.986831 0 8 tcp 1040 ------- 0 4.2 8.0 509 4895
r 4.987663 0 8 tcp 1040 ------- 0 4.2 8.0 510 4897
r 4.994826 0 8 tcp 1040 ------- 0 4.2 8.0 511 4908
r 4.995658 0 8 tcp 1040 ------- 0 4.2 8.0 512 4910
r 4.99649 0 8 tcp 1040 ------- 0 4.2 8.0 513 4911
r 4.997322 0 8 tcp 1040 ------- 0 4.2 8.0 514 4912
r 4.998154 0 8 tcp 1040 ------- 0 4.2 8.0 515 4916
r 4.998986 0 8 tcp 1040 ------- 0 4.2 8.0 516 4918
r 4.999818 0 8 tcp 1040 ------- 0 4.2 8.0 517 4920
r 5.00065 0 8 tcp 1040 ------- 0 4.2 8.0 518 4922
r 5.001482 0 8 tcp 1040 ------- 0 4.2 8.0 519 4924
r 5.002314 0 8 tcp 1040 ------- 0 4.2 8.0 520 4925
r 5.003146 0 8 tcp 1040 ------- 0 4.2 8.0 521 4926
r 5.003978 0 8 tcp 1040 ------- 0 4.2 8.0 522 4927
r 5.00481 0 8 tcp 1040 ------- 0 4.2 8.0 523 4928
r 5.005642 0 8 tcp 1040 ------- 0 4.2 8.0 524 4929
r 5.006474 0 8 tcp 1040 ------- 0 4.2 8.0 525 4930
r 5.008464 0 8 tcp 1040 ------- 0 4.2 8.0 526 4932
r 5.009296 0 8 tcp 1040 ------- 0 4.2 8.0 527 4934
r 5.011121 0 8 tcp 1040 ------- 0 4.2 8.0 528 4937
r 5.011953 0 8 tcp 1040 ------- 0 4.2 8.0 529 4939
r 5.012785 0 8 tcp 1040 ------- 0 4.2 8.0 530 4940
r 5.018955 0 8 tcp 1040 ------- 0 4.2 8.0 531 4950
r 5.019787 0 8 tcp 1040 ------- 0 4.2 8.0 532 4952
r 5.020619 0 8 tcp 1040 ------- 0 4.2 8.0 533 4953
r 5.021451 0 8 tcp 1040 ------- 0 4.2 8.0 534 4954
r 5.022283 0 8 tcp 1040 ------- 0 4.2 8.0 535 4956
r 5.023115 0 8 tcp 1040 ------- 0 4.2 8.0 536 4958
r 5.023947 0 8 tcp 1040 ------- 0 4.2 8.0 537 4959
r 5.024779 0 8 tcp 1040 ------- 0 4.2 8.0 538 4963
r 5.025611 0 8 tcp 1040 ------- 0 4.2 8.0 539 4965
r 5.026443 0 8 tcp 1040 ------- 0 4.2 8.0 540 4967
r 5.027275 0 8 tcp 1040 ------- 0 4.2 8.0 541 4968
r 5.028107 0 8 tcp 1040 ------- 0 4.2 8.0 542 4969
r 5.028939 0 8 tcp 1040 ------- 0 4.2 8.0 543 4970
r 5.029771 0 8 tcp 1040 ------- 0 4.2 8.0 544 4971
r 5.030603 0 8 tcp 1040 ------- 0 4.2 8.0 545 4972
r 5.032592 0 8 tcp 1040 ------- 0 4.2 8.0 546 4974
r 5.033424 0 8 tcp 1040 ------- 0 4.2 8.0 547 4976
r 5.035249 0 8 tcp 1040 ------- 0 4.2 8.0 548 4979
r 5.036081 0 8 tcp 1040 ------- 0 4.2 8.0 549 4981
r 5.037906 0 8 tcp 1040 ------- 0 4.2 8.0 550 4985
r 5.043083 0 8 tcp 1040 ------- 0 4.2 8.0 551 4992
r 5.043915 0 8 tcp 1040 ------- 0 4.2 8.0 552 4994
r 5.044747 0 8 tcp 1040 ------- 0 4.2 8.0 553 4995
r 5.045579 0 8 tcp 1040 ------- 0 4.2 8.0 554 4996
r 5.046411 0 8 tcp 1040 ------- 0 4.2 8.0 555 4998
r 5.047243 0 8 tcp 1040 ------- 0 4.2 8.0 556 5000
r 5.048075 0 8 tcp 1040 ------- 0 4.2 8.0 557 5001
r 5.048907 0 8 tcp 1040 ------- 0 4.2 8.0 558 5003
r 5.049739 0 8 tcp 1040 ------- 0 4.2 8.0 559 5005
r 5.050571 0 8 tcp 1040 ------- 0 4.2 8.0 560 5006
r 5.051403 0 8 tcp 1040 ------- 0 4.2 8.0 561 5008
r 5.052235 0 8 tcp 1040 ------- 0 4.2 8.0 562 5011
r 5.053067 0 8 tcp 1040 ------- 0 4.2 8.0 563 5012
r 5.053899 0 8 tcp 1040 ------- 0 4.2 8.0 564 5013
r 5.054731 0 8 tcp 1040 ------- 0 4.2 8.0 565 5014
r 5.056721 0 8 tcp 1040 ------- 0 4.2 8.0 566 5016
r 5.057553 0 8 tcp 1040 ------- 0 4.2 8.0 567 5018
r 5.059378 0 8 tcp 1040 ------- 0 4.2 8.0 568 5021
r 5.06021 0 8 tcp 1040 ------- 0 4.2 8.0 569 5023
r 5.062035 0 8 tcp 1040 ------- 0 4.2 8.0 570 5027
r 5.067212 0 8 tcp 1040 ------- 0 4.2 8.0 571 5034
r 5.068044 0 8 tcp 1040 ------- 0 4.2 8.0 572 5036
r 5.068876 0 8 tcp 1040 ------- 0 4.2 8.0 573 5037
r 5.069708 0 8 tcp 1040 ------- 0 4.2 8.0 574 5038
r 5.07054 0 8 tcp 1040 ------- 0 4.2 8.0 575 5040
r 5.071372 0 8 tcp 1040 ------- 0 4.2 8.0 576 5042
r 5.072204 0 8 tcp 1040 ------- 0 4.2 8.0 577 5043
r 5.073036 0 8 tcp 1040 ------- 0 4.2 8.0 578 5045
r 5.073868 0 8 tcp 1040 ------- 0 4.2 8.0 579 5047
r 5.0747 0 8 tcp 1040 ------- 0 4.2 8.0 580 5048
r 5.075532 0 8 tcp 1040 ------- 0 4.2 8.0 581 5050
r 5.076364 0 8 tcp 1040 ------- 0 4.2 8.0 582 5051
r 5.077196 0 8 tcp 1040 ------- 0 4.2 8.0 583 5052
r 5.078028 0 8 tcp 1040 ------- 0 4.2 8.0 584 5053
r 5.07886 0 8 tcp 1040 ------- 0 4.2 8.0 585 5056
r 5.08085 0 8 tcp 1040 ------- 0 4.2 8.0 586 5058
r 5.081682 0 8 tcp 1040 ------- 0 4.2 8.0 587 5060
r 5.083507 0 8 tcp 1040 ------- 0 4.2 8.0 588 5063
r 5.084339 0 8 tcp 1040 ------- 0 4.2 8.0 589 5065
r 5.086164 0 8 tcp 1040 ------- 0 4.2 8.0 590 5069
r 5.091688 0 8 tcp 1040 ------- 0 4.2 8.0 591 5076