r 0.111366 0 15 tcp 40 ------- 0 4.9 15.0 0 9
r 0.150183 0 15 tcp 1040 ------- 0 4.9 15.0 1 38
r 0.151015 0 15 tcp 1040 ------- 0 4.9 15.0 2 39
r 0.189288 0 15 tcp 1040 ------- 0 4.9 15.0 3 99
r 0.19012 0 15 tcp 1040 ------- 0 4.9 15.0 4 100
r 0.190952 0 15 tcp 1040 ------- 0 4.9 15.0 5 102
r 0.191784 0 15 tcp 1040 ------- 0 4.9 15.0 6 103
r 0.25252 0 15 tcp 1040 ------- 0 4.9 15.0 7 222
r 0.253352 0 15 tcp 1040 ------- 0 4.9 15.0 8 223
r 0.254184 0 15 tcp 1040 ------- 0 4.9 15.0 9 225
r 0.255016 0 15 tcp 1040 ------- 0 4.9 15.0 10 226
r 0.255848 0 15 tcp 1040 ------- 0 4.9 15.0 11 228
r 0.25668 0 15 tcp 1040 ------- 0 4.9 15.0 13 231
r 0.317416 0 15 tcp 1040 ------- 0 4.9 15.0 15 450
r 0.318248 0 15 tcp 1040 ------- 0 4.9 15.0 17 453
r 0.31908 0 15 tcp 1040 ------- 0 4.9 15.0 19 456
r 0.319912 0 15 tcp 1040 ------- 0 4.9 15.0 21 459
r 0.320744 0 15 tcp 1040 ------- 0 4.9 15.0 23 462
r 0.321576 0 15 tcp 1040 ------- 0 4.9 15.0 25 465
r 0.359016 0 15 tcp 1040 ------- 0 4.9 15.0 26 584
r 0.359848 0 15 tcp 1040 ---A--- 0 4.9 15.0 12 586
r 0.383977 0 15 tcp 1040 ------- 0 4.9 15.0 14 654
r 0.384809 0 15 tcp 1040 ------- 0 4.9 15.0 15 655
r 0.415593 0 15 tcp 1040 ------- 0 4.9 15.0 16 712
r 0.416425 0 15 tcp 1040 ------- 0 4.9 15.0 17 713
r 0.417257 0 15 tcp 1040 ------- 0 4.9 15.0 18 714
r 0.418089 0 15 tcp 1040 ------- 0 4.9 15.0 19 716
r 0.463849 0 15 tcp 1040 ------- 0 4.9 15.0 20 808
r 0.464681 0 15 tcp 1040 ------- 0 4.9 15.0 21 809
r 0.465513 0 15 tcp 1040 ------- 0 4.9 15.0 22 811
r 0.466345 0 15 tcp 1040 ------- 0 4.9 15.0 23 813
r 0.467177 0 15 tcp 1040 ------- 0 4.9 15.0 24 814
r 0.468009 0 15 tcp 1040 ------- 0 4.9 15.0 25 816
r 0.528745 0 15 tcp 1040 ------- 0 4.9 15.0 26 953
r 0.529577 0 15 tcp 1040 ------- 0 4.9 15.0 28 956
r 0.530409 0 15 tcp 1040 ------- 0 4.9 15.0 29 958
r 0.531241 0 15 tcp 1040 ------- 0 4.9 15.0 30 960
r 0.532073 0 15 tcp 1040 ------- 0 4.9 15.0 31 962
r 0.532905 0 15 tcp 1040 ------- 0 4.9 15.0 33 965
r 0.589481 0 15 tcp 1040 ------- 0 4.9 15.0 34 1108
r 0.715113 0 15 tcp 1040 ---A--- 0 4.9 15.0 27 1425
r 0.771689 0 15 tcp 1040 ------- 0 4.9 15.0 32 1551
r 0.772521 0 15 tcp 1040 ------- 0 4.9 15.0 33 1552
r 0.834089 0 15 tcp 1040 ------- 0 4.9 15.0 35 1694
r 0.834921 0 15 tcp 1040 ------- 0 4.9 15.0 36 1695
r 0.835753 0 15 tcp 1040 ------- 0 4.9 15.0 37 1696
r 0.836585 0 15 tcp 1040 ------- 0 4.9 15.0 38 1698
r 0.898985 0 15 tcp 1040 ------- 0 4.9 15.0 39 1856
r 0.899817 0 15 tcp 1040 ------- 0 4.9 15.0 40 1858
r 0.900649 0 15 tcp 1040 ------- 0 4.9 15.0 41 1860
r 0.901481 0 15 tcp 1040 ------- 0 4.9 15.0 42 1861
r 0.963881 0 15 tcp 1040 ------- 0 4.9 15.0 43 2012
r 0.964713 0 15 tcp 1040 ------- 0 4.9 15.0 44 2014
r 0.965545 0 15 tcp 1040 ------- 0 4.9 15.0 45 2016
r 0.966377 0 15 tcp 1040 ------- 0 4.9 15.0 46 2018
r 0.98801 0 15 tcp 1040 ------- 0 4.9 15.0 48 2118
r 0.988842 0 15 tcp 1040 ------- 0 4.9 15.0 49 2120
r 0.989674 0 15 tcp 1040 ------- 0 4.9 15.0 50 2122
r 0.990506 0 15 tcp 1040 ------- 0 4.9 15.0 51 2124
r 1.015466 0 15 tcp 1040 ------- 0 4.9 15.0 52 2160
r 1.016298 0 15 tcp 1040 ------- 0 4.9 15.0 53 2162
r 1.01713 0 15 tcp 1040 ---A--- 0 4.9 15.0 47 2164
r 1.05041 0 15 tcp 1040 ------- 0 4.9 15.0 54 2225
r 1.051242 0 15 tcp 1040 ------- 0 4.9 15.0 55 2226
r 1.093674 0 15 tcp 1040 ------- 0 4.9 15.0 56 2317
r 1.094506 0 15 tcp 1040 ------- 0 4.9 15.0 57 2319
r 1.142762 0 15 tcp 1040 ------- 0 4.9 15.0 58 2428
r 1.143594 0 15 tcp 1040 ------- 0 4.9 15.0 59 2429
r 1.144426 0 15 tcp 1040 ------- 0 4.9 15.0 60 2431
r 1.20017 0 15 tcp 1040 ------- 0 4.9 15.0 61 2556
r 1.201002 0 15 tcp 1040 ------- 0 4.9 15.0 62 2558
r 1.201834 0 15 tcp 1040 ------- 0 4.9 15.0 63 2559
r 1.202666 0 15 tcp 1040 ------- 0 4.9 15.0 64 2561
r 1.26257 0 15 tcp 1040 ------- 0 4.9 15.0 65 2700
r 1.263402 0 15 tcp 1040 ------- 0 4.9 15.0 66 2702
r 1.264234 0 15 tcp 1040 ------- 0 4.9 15.0 67 2704
r 1.265066 0 15 tcp 1040 ------- 0 4.9 15.0 68 2706
r 1.265898 0 15 tcp 1040 ------- 0 4.9 15.0 69 2707
r 1.327466 0 15 tcp 1040 ------- 0 4.9 15.0 70 2857
r 1.328298 0 15 tcp 1040 ------- 0 4.9 15.0 71 2859
r 1.32913 0 15 tcp 1040 ------- 0 4.9 15.0 72 2861
r 1.329962 0 15 tcp 1040 ------- 0 4.9 15.0 73 2863
r 1.330794 0 15 tcp 1040 ------- 0 4.9 15.0 74 2865
r 1.375722 0 15 tcp 1040 ------- 0 4.9 15.0 76 2999
r 1.376554 0 15 tcp 1040 ------- 0 4.9 15.0 77 3001
r 1.377386 0 15 tcp 1040 ------- 0 4.9 15.0 78 3003
r 1.378218 0 15 tcp 1040 ------- 0 4.9 15.0 79 3005
r 1.37905 0 15 tcp 1040 ------- 0 4.9 15.0 80 3007
r 1.409834 0 15 tcp 1040 ------- 0 4.9 15.0 81 3098
r 1.410666 0 15 tcp 1040 ------- 0 4.9 15.0 82 3100
r 1.411498 0 15 tcp 1040 ---A--- 0 4.9 15.0 75 3102
r 1.441451 0 15 tcp 1040 ------- 0 4.9 15.0 83 3165
r 1.442283 0 15 tcp 1040 ------- 0 4.9 15.0 84 3166
r 1.476395 0 15 tcp 1040 ------- 0 4.9 15.0 85 3239
r 1.477227 0 15 tcp 1040 ------- 0 4.9 15.0 86 3240
r 1.478059 0 15 tcp 1040 ------- 0 4.9 15.0 87 3242
r 1.515499 0 15 tcp 1040 ------- 0 4.9 15.0 88 3328
r 1.516331 0 15 tcp 1040 ------- 0 4.9 15.0 89 3330
r 1.517163 0 15 tcp 1040 ------- 0 4.9 15.0 90 3332
r 1.517995 0 15 tcp 1040 ------- 0 4.9 15.0 91 3333
r 1.562923 0 15 tcp 1040 ------- 0 4.9 15.0 92 3432
r 1.563755 0 15 tcp 1040 ------- 0 4.9 15.0 93 3434
r 1.564587 0 15 tcp 1040 ------- 0 4.9 15.0 94 3436
r 1.565419 0 15 tcp 1040 ------- 0 4.9 15.0 95 3438
r 1.566251 0 15 tcp 1040 ------- 0 4.9 15.0 96 3439
r 1.618667 0 15 tcp 1040 ------- 0 4.9 15.0 97 3556
r 1.619499 0 15 tcp 1040 ------- 0 4.9 15.0 98 3558
r 1.620331 0 15 tcp 1040 ------- 0 4.9 15.0 99 3560
r 1.621163 0 15 tcp 1040 ------- 0 4.9 15.0 100 3562
r 1.621995 0 15 tcp 1040 ------- 0 4.9 15.0 101 3564
r 1.681899 0 15 tcp 1040 ------- 0 4.9 15.0 102 3699
r 1.682731 0 15 tcp 1040 ------- 0 4.9 15.0 103 3700
r 1.683563 0 15 tcp 1040 ------- 0 4.9 15.0 104 3702
r 1.684395 0 15 tcp 1040 ------- 0 4.9 15.0 105 3704
r 1.685227 0 15 tcp 1040 ------- 0 4.9 15.0 106 3706
r 1.686059 0 15 tcp 1040 ------- 0 4.9 15.0 107 3708
r 1.746795 0 15 tcp 1040 ------- 0 4.9 15.0 108 3861
r 1.747627 0 15 tcp 1040 ------- 0 4.9 15.0 109 3863
r 1.748459 0 15 tcp 1040 ------- 0 4.9 15.0 111 3866
r 1.749291 0 15 tcp 1040 ------- 0 4.9 15.0 112 3868
r 1.750123 0 15 tcp 1040 ------- 0 4.9 15.0 113 3870
r 1.750955 0 15 tcp 1040 ------- 0 4.9 15.0 114 3872
r 1.811691 0 15 tcp 1040 ------- 0 4.9 15.0 115 4019
r 1.812523 0 15 tcp 1040 ------- 0 4.9 15.0 116 4021
r 1.813355 0 15 tcp 1040 ------- 0 4.9 15.0 117 4023
r 1.814187 0 15 tcp 1040 ------- 0 4.9 15.0 118 4025
r 1.815019 0 15 tcp 1040 ---A--- 0 4.9 15.0 110 4027
r 1.839148 0 15 tcp 1040 ------- 0 4.9 15.0 119 4130
r 1.83998 0 15 tcp 1040 ------- 0 4.9 15.0 120 4131
r 1.863277 0 15 tcp 1040 ------- 0 4.9 15.0 121 4170
r 1.864109 0 15 tcp 1040 ------- 0 4.9 15.0 122 4171
r 1.864941 0 15 tcp 1040 ------- 0 4.9 15.0 123 4173
r 1.897389 0 15 tcp 1040 ------- 0 4.9 15.0 124 4228
r 1.898221 0 15 tcp 1040 ------- 0 4.9 15.0 125 4230
r 1.899053 0 15 tcp 1040 ------- 0 4.9 15.0 126 4232
r 1.899885 0 15 tcp 1040 ------- 0 4.9 15.0 127 4233
r 1.933997 0 15 tcp 1040 ------- 0 4.9 15.0 128 4313
r 1.934829 0 15 tcp 1040 ------- 0 4.9 15.0 129 4315
r 1.935661 0 15 tcp 1040 ------- 0 4.9 15.0 130 4317
r 1.936493 0 15 tcp 1040 ------- 0 4.9 15.0 131 4319
r 1.937325 0 15 tcp 1040 ------- 0 4.9 15.0 132 4320
r 1.978093 0 15 tcp 1040 ------- 0 4.9 15.0 133 4410
r 1.978925 0 15 tcp 1040 ------- 0 4.9 15.0 134 4412
r 1.979757 0 15 tcp 1040 ------- 0 4.9 15.0 135 4414
r 1.980589 0 15 tcp 1040 ------- 0 4.9 15.0 136 4416
r 1.981421 0 15 tcp 1040 ------- 0 4.9 15.0 137 4418
r 2.029677 0 15 tcp 1040 ------- 0 4.9 15.0 138 4525
r 2.030509 0 15 tcp 1040 ------- 0 4.9 15.0 139 4526
r 2.031341 0 15 tcp 1040 ------- 0 4.9 15.0 140 4528
r 2.032173 0 15 tcp 1040 ------- 0 4.9 15.0 141 4530
r 2.033005 0 15 tcp 1040 ------- 0 4.9 15.0 142 4532
r 2.033837 0 15 tcp 1040 ------- 0 4.9 15.0 143 4534
r 2.089581 0 15 tcp 1040 ------- 0 4.9 15.0 144 4659
r 2.090413 0 15 tcp 1040 ------- 0 4.9 15.0 145 4661
r 2.091245 0 15 tcp 1040 ------- 0 4.9 15.0 146 4662
r 2.092077 0 15 tcp 1040 ------- 0 4.9 15.0 147 4664
r 2.092909 0 15 tcp 1040 ------- 0 4.9 15.0 148 4666
r 2.093741 0 15 tcp 1040 ------- 0 4.9 15.0 149 4668
r 2.094573 0 15 tcp 1040 ------- 0 4.9 15.0 150 4670
r 2.154477 0 15 tcp 1040 ------- 0 4.9 15.0 151 4813
r 2.155309 0 15 tcp 1040 ------- 0 4.9 15.0 152 4815
r 2.156141 0 15 tcp 1040 ------- 0 4.9 15.0 153 4817
r 2.156973 0 15 tcp 1040 ------- 0 4.9 15.0 155 4820
r 2.157805 0 15 tcp 1040 ------- 0 4.9 15.0 156 4822
r 2.158637 0 15 tcp 1040 ------- 0 4.9 15.0 157 4824
r 2.159469 0 15 tcp 1040 ------- 0 4.9 15.0 158 4826
r 2.219373 0 15 tcp 1040 ------- 0 4.9 15.0 159 4975
r 2.220205 0 15 tcp 1040 ------- 0 4.9 15.0 160 4977
r 2.221037 0 15 tcp 1040 ------- 0 4.9 15.0 161 4979
r 2.221869 0 15 tcp 1040 ------- 0 4.9 15.0 162 4981
r 2.222701 0 15 tcp 1040 ------- 0 4.9 15.0 163 4983
r 2.223533 0 15 tcp 1040 ---A--- 0 4.9 15.0 154 4985
r 2.263469 0 15 tcp 1040 ------- 0 4.9 15.0 164 5111
r 2.264301 0 15 tcp 1040 ------- 0 4.9 15.0 165 5112
r 2.28843 0 15 tcp 1040 ------- 0 4.9 15.0 166 5174
r 2.289262 0 15 tcp 1040 ------- 0 4.9 15.0 167 5175
r 2.290094 0 15 tcp 1040 ------- 0 4.9 15.0 168 5177
r 2.290926 0 15 tcp 1040 ------- 0 4.9 15.0 169 5178
r 2.319214 0 15 tcp 1040 ------- 0 4.9 15.0 170 5226
r 2.320046 0 15 tcp 1040 ------- 0 4.9 15.0 171 5228
r 2.320878 0 15 tcp 1040 ------- 0 4.9 15.0 172 5229
r 2.32171 0 15 tcp 1040 ------- 0 4.9 15.0 173 5230
r 2.352494 0 15 tcp 1040 ------- 0 4.9 15.0 174 5297
r 2.353326 0 15 tcp 1040 ------- 0 4.9 15.0 175 5298
r 2.354158 0 15 tcp 1040 ------- 0 4.9 15.0 176 5300
r 2.35499 0 15 tcp 1040 ------- 0 4.9 15.0 177 5302
r 2.355822 0 15 tcp 1040 ------- 0 4.9 15.0 178 5304
r 2.389934 0 15 tcp 1040 ------- 0 4.9 15.0 179 5382
r 2.390766 0 15 tcp 1040 ------- 0 4.9 15.0 180 5384
r 2.391598 0 15 tcp 1040 ------- 0 4.9 15.0 181 5385
r 2.39243 0 15 tcp 1040 ------- 0 4.9 15.0 182 5387
r 2.393262 0 15 tcp 1040 ------- 0 4.9 15.0 183 5389
r 2.394094 0 15 tcp 1040 ------- 0 4.9 15.0 184 5391
r 2.435694 0 15 tcp 1040 ------- 0 4.9 15.0 185 5482
r 2.436526 0 15 tcp 1040 ------- 0 4.9 15.0 186 5484
r 2.437358 0 15 tcp 1040 ------- 0 4.9 15.0 187 5486
r 2.43819 0 15 tcp 1040 ------- 0 4.9 15.0 188 5488
r 2.439022 0 15 tcp 1040 ------- 0 4.9 15.0 189 5489
r 2.439854 0 15 tcp 1040 ------- 0 4.9 15.0 190 5491
r 2.440686 0 15 tcp 1040 ------- 0 4.9 15.0 191 5493
r 2.489774 0 15 tcp 1040 ------- 0 4.9 15.0 192 5602
r 2.490606 0 15 tcp 1040 ------- 0 4.9 15.0 193 5604
r 2.491438 0 15 tcp 1040 ------- 0 4.9 15.0 194 5606
r 2.49227 0 15 tcp 1040 ------- 0 4.9 15.0 195 5608
r 2.493102 0 15 tcp 1040 ------- 0 4.9 15.0 196 5610
r 2.493934 0 15 tcp 1040 ------- 0 4.9 15.0 197 5611
r 2.494766 0 15 tcp 1040 ------- 0 4.9 15.0 198 5613
r 2.495598 0 15 tcp 1040 ------- 0 4.9 15.0 199 5615
r 2.552174 0 15 tcp 1040 ------- 0 4.9 15.0 200 5742
r 2.553006 0 15 tcp 1040 ------- 0 4.9 15.0 201 5744
r 2.553838 0 15 tcp 1040 ------- 0 4.9 15.0 202 5746
r 2.55467 0 15 tcp 1040 ------- 0 4.9 15.0 203 5748
r 2.555502 0 15 tcp 1040 ------- 0 4.9 15.0 204 5750
r 2.556334 0 15 tcp 1040 ------- 0 4.9 15.0 205 5752
r 2.557166 0 15 tcp 1040 ------- 0 4.9 15.0 206 5754
r 2.557998 0 15 tcp 1040 ------- 0 4.9 15.0 207 5755
r 2.55883 0 15 tcp 1040 ------- 0 4.9 15.0 208 5757
r 2.61707 0 15 tcp 1040 ------- 0 4.9 15.0 209 5902
r 2.617902 0 15 tcp 1040 ------- 0 4.9 15.0 210 5904
r 2.618734 0 15 tcp 1040 ------- 0 4.9 15.0 211 5906
r 2.619566 0 15 tcp 1040 ------- 0 4.9 15.0 212 5908
r 2.620398 0 15 tcp 1040 ------- 0 4.9 15.0 213 5910
r 2.62123 0 15 tcp 1040 ------- 0 4.9 15.0 214 5912
r 2.622062 0 15 tcp 1040 ------- 0 4.9 15.0 215 5914
r 2.622894 0 15 tcp 1040 ------- 0 4.9 15.0 216 5916
r 2.623726 0 15 tcp 1040 ------- 0 4.9 15.0 218 5919
r 2.681966 0 15 tcp 1040 ------- 0 4.9 15.0 219 6061
r 2.682798 0 15 tcp 1040 ------- 0 4.9 15.0 220 6063
r 2.68363 0 15 tcp 1040 ------- 0 4.9 15.0 221 6065
r 2.684462 0 15 tcp 1040 ------- 0 4.9 15.0 222 6067
r 2.685294 0 15 tcp 1040 ------- 0 4.9 15.0 223 6069
r 2.686126 0 15 tcp 1040 ------- 0 4.9 15.0 224 6071
r 2.686958 0 15 tcp 1040 ------- 0 4.9 15.0 225 6073
r 2.68779 0 15 tcp 1040 ------- 0 4.9 15.0 226 6075
r 2.688622 0 15 tcp 1040 ------- 0 4.9 15.0 227 6077
r 2.711918 0 15 tcp 1040 ------- 0 4.9 15.0 228 6175
r 2.71275 0 15 tcp 1040 ---A--- 0 4.9 15.0 217 6177
r 2.738543 0 15 tcp 1040 ------- 0 4.9 15.0 229 6223
r 2.739375 0 15 tcp 1040 ------- 0 4.9 15.0 230 6224
r 2.77432 0 15 tcp 1040 ------- 0 4.9 15.0 231 6277
r 2.775152 0 15 tcp 1040 ------- 0 4.9 15.0 232 6278
r 2.775984 0 15 tcp 1040 ------- 0 4.9 15.0 233 6279
r 2.776816 0 15 tcp 1040 ------- 0 4.9 15.0 234 6280
r 2.8076 0 15 tcp 1040 ------- 0 4.9 15.0 235 6359
r 2.808432 0 15 tcp 1040 ------- 0 4.9 15.0 236 6360
r 2.809264 0 15 tcp 1040 ------- 0 4.9 15.0 237 6362
r 2.810096 0 15 tcp 1040 ------- 0 4.9 15.0 238 6364
r 2.810928 0 15 tcp 1040 ------- 0 4.9 15.0 239 6366
r 2.847536 0 15 tcp 1040 ------- 0 4.9 15.0 240 6447
r 2.848368 0 15 tcp 1040 ------- 0 4.9 15.0 241 6449
r 2.8492 0 15 tcp 1040 ------- 0 4.9 15.0 242 6451
r 2.850032 0 15 tcp 1040 ------- 0 4.9 15.0 243 6452
r 2.850864 0 15 tcp 1040 ------- 0 4.9 15.0 244 6454
r 2.851696 0 15 tcp 1040 ------- 0 4.9 15.0 245 6456
r 2.895792 0 15 tcp 1040 ------- 0 4.9 15.0 246 6553
r 2.896624 0 15 tcp 1040 ------- 0 4.9 15.0 247 6555
r 2.897456 0 15 tcp 1040 ------- 0 4.9 15.0 248 6557
r 2.898288 0 15 tcp 1040 ------- 0 4.9 15.0 249 6559
r 2.89912 0 15 tcp 1040 ------- 0 4.9 15.0 250 6560
r 2.899952 0 15 tcp 1040 ------- 0 4.9 15.0 251 6562
r 2.900784 0 15 tcp 1040 ------- 0 4.9 15.0 252 6564
r 2.952368 0 15 tcp 1040 ------- 0 4.9 15.0 253 6679
r 2.9532 0 15 tcp 1040 ------- 0 4.9 15.0 254 6681
r 2.954032 0 15 tcp 1040 ------- 0 4.9 15.0 255 6683
r 2.954864 0 15 tcp 1040 ------- 0 4.9 15.0 256 6685
r 2.955696 0 15 tcp 1040 ------- 0 4.9 15.0 257 6687
r 2.956528 0 15 tcp 1040 ------- 0 4.9 15.0 258 6689
r 2.95736 0 15 tcp 1040 ------- 0 4.9 15.0 259 6690
r 2.958192 0 15 tcp 1040 ------- 0 4.9 15.0 260 6692
r 3.017264 0 15 tcp 1040 ------- 0 4.9 15.0 261 6825
r 3.018096 0 15 tcp 1040 ------- 0 4.9 15.0 262 6827
r 3.018928 0 15 tcp 1040 ------- 0 4.9 15.0 263 6829
r 3.01976 0 15 tcp 1040 ------- 0 4.9 15.0 264 6831
r 3.020592 0 15 tcp 1040 ------- 0 4.9 15.0 265 6833
r 3.021424 0 15 tcp 1040 ------- 0 4.9 15.0 266 6835
r 3.022256 0 15 tcp 1040 ------- 0 4.9 15.0 267 6837
r 3.023088 0 15 tcp 1040 ------- 0 4.9 15.0 269 6840
r 3.082992 0 15 tcp 1040 ------- 0 4.9 15.0 271 7033
r 3.083824 0 15 tcp 1040 ------- 0 4.9 15.0 272 7035
r 3.084656 0 15 tcp 1040 ------- 0 4.9 15.0 273 7037
r 3.085488 0 15 tcp 1040 ------- 0 4.9 15.0 274 7039
r 3.08632 0 15 tcp 1040 ------- 0 4.9 15.0 275 7041
r 3.087152 0 15 tcp 1040 ------- 0 4.9 15.0 276 7043
r 3.087984 0 15 tcp 1040 ------- 0 4.9 15.0 277 7045
r 3.147888 0 15 tcp 1040 ------- 0 4.9 15.0 278 7243
r 3.14872 0 15 tcp 1040 ---A--- 0 4.9 15.0 268 7244
r 3.176887 0 15 tcp 1040 ------- 0 4.9 15.0 270 7379
r 3.177719 0 15 tcp 1040 ------- 0 4.9 15.0 271 7380
r 3.207833 0 15 tcp 1040 ------- 0 4.9 15.0 279 7477
r 3.208665 0 15 tcp 1040 ------- 0 4.9 15.0 280 7478
r 3.209497 0 15 tcp 1040 ------- 0 4.9 15.0 281 7479
r 3.210329 0 15 tcp 1040 ------- 0 4.9 15.0 282 7481
r 3.248601 0 15 tcp 1040 ------- 0 4.9 15.0 283 7576
r 3.249433 0 15 tcp 1040 ------- 0 4.9 15.0 284 7578
r 3.250265 0 15 tcp 1040 ------- 0 4.9 15.0 285 7580
r 3.251097 0 15 tcp 1040 ------- 0 4.9 15.0 286 7582
r 3.290201 0 15 tcp 1040 ------- 0 4.9 15.0 287 7702
r 3.291033 0 15 tcp 1040 ------- 0 4.9 15.0 288 7703
r 3.291865 0 15 tcp 1040 ------- 0 4.9 15.0 289 7704
r 3.292697 0 15 tcp 1040 ------- 0 4.9 15.0 290 7705
r 3.293529 0 15 tcp 1040 ------- 0 4.9 15.0 291 7706
r 3.340121 0 15 tcp 1040 ------- 0 4.9 15.0 292 7845
r 3.340953 0 15 tcp 1040 ------- 0 4.9 15.0 293 7847
r 3.341785 0 15 tcp 1040 ------- 0 4.9 15.0 294 7849
r 3.342617 0 15 tcp 1040 ------- 0 4.9 15.0 295 7850
r 3.343449 0 15 tcp 1040 ------- 0 4.9 15.0 296 7852
r 3.344281 0 15 tcp 1040 ------- 0 4.9 15.0 297 7854
r 3.398361 0 15 tcp 1040 ------- 0 4.9 15.0 298 8015
r 3.399193 0 15 tcp 1040 ------- 0 4.9 15.0 299 8017
r 3.400025 0 15 tcp 1040 ------- 0 4.9 15.0 300 8019
r 3.400857 0 15 tcp 1040 ------- 0 4.9 15.0 301 8021
r 3.401689 0 15 tcp 1040 ------- 0 4.9 15.0 302 8023
r 3.402521 0 15 tcp 1040 ------- 0 4.9 15.0 303 8024
r 3.403353 0 15 tcp 1040 ------- 0 4.9 15.0 304 8026
r 3.463257 0 15 tcp 1040 ------- 0 4.9 15.0 305 8205
r 3.464089 0 15 tcp 1040 ------- 0 4.9 15.0 306 8207
r 3.464921 0 15 tcp 1040 ------- 0 4.9 15.0 307 8209
r 3.465753 0 15 tcp 1040 ------- 0 4.9 15.0 308 8211
r 3.466585 0 15 tcp 1040 ------- 0 4.9 15.0 309 8213
r 3.467417 0 15 tcp 1040 ------- 0 4.9 15.0 310 8230
r 3.468249 0 15 tcp 1040 ------- 0 4.9 15.0 311 8231
r 3.469081 0 15 tcp 1040 ------- 0 4.9 15.0 312 8232
r 3.528153 0 15 tcp 1040 ------- 0 4.9 15.0 313 8415
r 3.528985 0 15 tcp 1040 ------- 0 4.9 15.0 314 8416
r 3.529817 0 15 tcp 1040 ------- 0 4.9 15.0 315 8417
r 3.530649 0 15 tcp 1040 ------- 0 4.9 15.0 316 8418
r 3.531481 0 15 tcp 1040 ------- 0 4.9 15.0 317 8419
r 3.532313 0 15 tcp 1040 ------- 0 4.9 15.0 318 8420
r 3.533145 0 15 tcp 1040 ------- 0 4.9 15.0 319 8421
r 3.533977 0 15 tcp 1040 ------- 0 4.9 15.0 320 8423
r 3.534809 0 15 tcp 1040 ------- 0 4.9 15.0 321 8424
r 3.582233 0 15 tcp 1040 ------- 0 4.9 15.0 322 8617
r 3.583065 0 15 tcp 1040 ------- 0 4.9 15.0 323 8619
r 3.583897 0 15 tcp 1040 ------- 0 4.9 15.0 324 8621
r 3.584729 0 15 tcp 1040 ------- 0 4.9 15.0 325 8623
r 3.585561 0 15 tcp 1040 ------- 0 4.9 15.0 326 8625
r 3.586393 0 15 tcp 1040 ------- 0 4.9 15.0 327 8627
r 3.587225 0 15 tcp 1040 ------- 0 4.9 15.0 328 8629
r 3.588057 0 15 tcp 1040 ------- 0 4.9 15.0 329 8631
r 3.588889 0 15 tcp 1040 ------- 0 4.9 15.0 330 8633
r 3.589721 0 15 tcp 1040 ------- 0 4.9 15.0 331 8634
r 3.620505 0 15 tcp 1040 ------- 0 4.9 15.0 332 8768
r 3.621337 0 15 tcp 1040 ------- 0 4.9 15.0 333 8770
r 3.622169 0 15 tcp 1040 ------- 0 4.9 15.0 334 8772
r 3.623001 0 15 tcp 1040 ------- 0 4.9 15.0 335 8774
r 3.623833 0 15 tcp 1040 ------- 0 4.9 15.0 336 8776
r 3.624665 0 15 tcp 1040 ------- 0 4.9 15.0 337 8778
r 3.625497 0 15 tcp 1040 ------- 0 4.9 15.0 338 8780
r 3.626329 0 15 tcp 1040 ------- 0 4.9 15.0 339 8782
r 3.627161 0 15 tcp 1040 ------- 0 4.9 15.0 340 8784
r 3.627993 0 15 tcp 1040 ------- 0 4.9 15.0 341 8801
r 3.628825 0 15 tcp 1040 ------- 0 4.9 15.0 342 8802
r 3.662358 0 15 tcp 1040 ------- 0 4.9 15.0 343 8891
r 3.66319 0 15 tcp 1040 ------- 0 4.9 15.0 344 8892
r 3.664022 0 15 tcp 1040 ------- 0 4.9 15.0 345 8893
r 3.664854 0 15 tcp 1040 ------- 0 4.9 15.0 346 8894
r 3.665686 0 15 tcp 1040 ------- 0 4.9 15.0 347 8895
r 3.666518 0 15 tcp 1040 ------- 0 4.9 15.0 348 8896
r 3.66735 0 15 tcp 1040 ------- 0 4.9 15.0 349 8897
r 3.668182 0 15 tcp 1040 ------- 0 4.9 15.0 350 8898
r 3.669014 0 15 tcp 1040 ------- 0 4.9 15.0 351 8899
r 3.669846 0 15 tcp 1040 ------- 0 4.9 15.0 352 8900
r 3.670678 0 15 tcp 1040 ------- 0 4.9 15.0 353 8901
r 3.712278 0 15 tcp 1040 ------- 0 4.9 15.0 354 9028
r 3.71311 0 15 tcp 1040 ------- 0 4.9 15.0 355 9029
r 3.713942 0 15 tcp 1040 ------- 0 4.9 15.0 356 9031
r 3.714774 0 15 tcp 1040 ------- 0 4.9 15.0 357 9033
r 3.715606 0 15 tcp 1040 ------- 0 4.9 15.0 358 9035
r 3.716438 0 15 tcp 1040 ------- 0 4.9 15.0 359 9037
r 3.71727 0 15 tcp 1040 ------- 0 4.9 15.0 360 9039
r 3.718102 0 15 tcp 1040 ------- 0 4.9 15.0 361 9041
r 3.718934 0 15 tcp 1040 ------- 0 4.9 15.0 362 9043
r 3.719766 0 15 tcp 1040 ------- 0 4.9 15.0 363 9045
r 3.720598 0 15 tcp 1040 ------- 0 4.9 15.0 364 9062
r 3.72143 0 15 tcp 1040 ------- 0 4.9 15.0 365 9063
r 3.765526 0 15 tcp 1040 ------- 0 4.9 15.0 366 9192
r 3.766358 0 15 tcp 1040 ------- 0 4.9 15.0 367 9194
r 3.76719 0 15 tcp 1040 ------- 0 4.9 15.0 368 9195
r 3.768022 0 15 tcp 1040 ------- 0 4.9 15.0 369 9197
r 3.768854 0 15 tcp 1040 ------- 0 4.9 15.0 370 9199
r 3.769686 0 15 tcp 1040 ------- 0 4.9 15.0 371 9201
r 3.770518 0 15 tcp 1040 ------- 0 4.9 15.0 372 9203
r 3.77135 0 15 tcp 1040 ------- 0 4.9 15.0 373 9205
r 3.772182 0 15 tcp 1040 ------- 0 4.9 15.0 374 9207
r 3.773014 0 15 tcp 1040 ------- 0 4.9 15.0 375 9209
r 3.773846 0 15 tcp 1040 ------- 0 4.9 15.0 376 9211
r 3.774678 0 15 tcp 1040 ------- 0 4.9 15.0 377 9213
r 3.77551 0 15 tcp 1040 ------- 0 4.9 15.0 378 9215
r 3.824598 0 15 tcp 1040 ------- 0 4.9 15.0 379 9347
r 3.82543 0 15 tcp 1040 ------- 0 4.9 15.0 380 9369
r 3.826262 0 15 tcp 1040 ------- 0 4.9 15.0 381 9371
r 3.827094 0 15 tcp 1040 ------- 0 4.9 15.0 382 9373
r 3.827926 0 15 tcp 1040 ------- 0 4.9 15.0 383 9374
r 3.828758 0 15 tcp 1040 ------- 0 4.9 15.0 384 9376
r 3.82959 0 15 tcp 1040 ------- 0 4.9 15.0 385 9378
r 3.830422 0 15 tcp 1040 ------- 0 4.9 15.0 386 9380
r 3.831254 0 15 tcp 1040 ------- 0 4.9 15.0 387 9382
r 3.832086 0 15 tcp 1040 ------- 0 4.9 15.0 388 9384
r 3.832918 0 15 tcp 1040 ------- 0 4.9 15.0 389 9386
r 3.83375 0 15 tcp 1040 ------- 0 4.9 15.0 390 9388
r 3.834582 0 15 tcp 1040 ------- 0 4.9 15.0 391 9390
r 3.835414 0 15 tcp 1040 ------- 0 4.9 15.0 392 9392
r 3.889494 0 15 tcp 1040 ------- 0 4.9 15.0 393 9559
r 3.890326 0 15 tcp 1040 ------- 0 4.9 15.0 394 9561
r 3.891158 0 15 tcp 1040 ------- 0 4.9 15.0 395 9563
r 3.89199 0 15 tcp 1040 ------- 0 4.9 15.0 396 9565
r 3.892822 0 15 tcp 1040 ------- 0 4.9 15.0 397 9567
r 3.893654 0 15 tcp 1040 ------- 0 4.9 15.0 399 9570
r 3.894486 0 15 tcp 1040 ------- 0 4.9 15.0 400 9572
r 3.895318 0 15 tcp 1040 ------- 0 4.9 15.0 401 9589
r 3.89615 0 15 tcp 1040 ------- 0 4.9 15.0 402 9590
r 3.896982 0 15 tcp 1040 ------- 0 4.9 15.0 403 9591
r 3.897814 0 15 tcp 1040 ------- 0 4.9 15.0 404 9592
r 3.898646 0 15 tcp 1040 ------- 0 4.9 15.0 405 9593
r 3.899478 0 15 tcp 1040 ------- 0 4.9 15.0 406 9594
r 3.90031 0 15 tcp 1040 ------- 0 4.9 15.0 407 9596
r 3.955222 0 15 tcp 1040 ------- 0 4.9 15.0 408 9773
r 3.956054 0 15 tcp 1040 ------- 0 4.9 15.0 409 9774
r 3.956886 0 15 tcp 1040 ------- 0 4.9 15.0 410 9775
r 3.957718 0 15 tcp 1040 ------- 0 4.9 15.0 411 9776
r 3.95855 0 15 tcp 1040 ------- 0 4.9 15.0 412 9777
r 3.959382 0 15 tcp 1040 ------- 0 4.9 15.0 413 9778
r 3.960214 0 15 tcp 1040 ------- 0 4.9 15.0 414 9779
r 3.961046 0 15 tcp 1040 ---A--- 0 4.9 15.0 398 9780
r 4.000982 0 15 tcp 1040 ------- 0 4.9 15.0 415 9965
r 4.001814 0 15 tcp 1040 ------- 0 4.9 15.0 416 9966
r 4.037358 0 15 tcp 1040 ------- 0 4.9 15.0 417 10078
r 4.03819 0 15 tcp 1040 ------- 0 4.9 15.0 418 10079
r 4.039022 0 15 tcp 1040 ------- 0 4.9 15.0 419 10080
r 4.039854 0 15 tcp 1040 ------- 0 4.9 15.0 420 10081
r 4.083118 0 15 tcp 1040 ------- 0 4.9 15.0 421 10210
r 4.08395 0 15 tcp 1040 ------- 0 4.9 15.0 422 10211
r 4.084782 0 15 tcp 1040 ------- 0 4.9 15.0 423 10213
r 4.085614 0 15 tcp 1040 ------- 0 4.9 15.0 424 10214
r 4.086446 0 15 tcp 1040 ------- 0 4.9 15.0 425 10216
r 4.087278 0 15 tcp 1040 ------- 0 4.9 15.0 426 10217
r 4.08811 0 15 tcp 1040 ------- 0 4.9 15.0 427 10219
r 4.140526 0 15 tcp 1040 ------- 0 4.9 15.0 428 10356
r 4.141358 0 15 tcp 1040 ------- 0 4.9 15.0 429 10357
r 4.14219 0 15 tcp 1040 ------- 0 4.9 15.0 430 10358
r 4.143022 0 15 tcp 1040 ------- 0 4.9 15.0 431 10360
r 4.143854 0 15 tcp 1040 ------- 0 4.9 15.0 432 10362
r 4.144686 0 15 tcp 1040 ------- 0 4.9 15.0 433 10384
r 4.145518 0 15 tcp 1040 ------- 0 4.9 15.0 434 10386
r 4.14635 0 15 tcp 1040 ------- 0 4.9 15.0 435 10387
r 4.202094 0 15 tcp 1040 ------- 0 4.9 15.0 436 10537
r 4.202926 0 15 tcp 1040 ------- 0 4.9 15.0 437 10559
r 4.203758 0 15 tcp 1040 ------- 0 4.9 15.0 438 10561
r 4.20459 0 15 tcp 1040 ------- 0 4.9 15.0 439 10563
r 4.205422 0 15 tcp 1040 ------- 0 4.9 15.0 440 10565
r 4.206254 0 15 tcp 1040 ------- 0 4.9 15.0 441 10567
r 4.207086 0 15 tcp 1040 ------- 0 4.9 15.0 442 10569
r 4.207918 0 15 tcp 1040 ------- 0 4.9 15.0 443 10571
r 4.20875 0 15 tcp 1040 ------- 0 4.9 15.0 444 10572
r 4.26699 0 15 tcp 1040 ------- 0 4.9 15.0 445 10755
r 4.267822 0 15 tcp 1040 ------- 0 4.9 15.0 446 10757
r 4.268654 0 15 tcp 1040 ------- 0 4.9 15.0 447 10759
r 4.269486 0 15 tcp 1040 ------- 0 4.9 15.0 448 10761
r 4.270318 0 15 tcp 1040 ------- 0 4.9 15.0 449 10778
r 4.27115 0 15 tcp 1040 ------- 0 4.9 15.0 450 10779
r 4.271982 0 15 tcp 1040 ------- 0 4.9 15.0 451 10780
r 4.272814 0 15 tcp 1040 ------- 0 4.9 15.0 452 10781
r 4.273646 0 15 tcp 1040 ------- 0 4.9 15.0 453 10782
r 4.331886 0 15 tcp 1040 ------- 0 4.9 15.0 454 10961
r 4.332718 0 15 tcp 1040 ------- 0 4.9 15.0 455 10962
r 4.33355 0 15 tcp 1040 ------- 0 4.9 15.0 456 10963
r 4.334382 0 15 tcp 1040 ------- 0 4.9 15.0 457 10964
r 4.335214 0 15 tcp 1040 ------- 0 4.9 15.0 458 10965
r 4.336046 0 15 tcp 1040 ------- 0 4.9 15.0 459 10966
r 4.336878 0 15 tcp 1040 ------- 0 4.9 15.0 460 10967
r 4.33771 0 15 tcp 1040 ------- 0 4.9 15.0 461 10968
r 4.338542 0 15 tcp 1040 ------- 0 4.9 15.0 462 10970
r 4.339374 0 15 tcp 1040 ------- 0 4.9 15.0 463 10972
r 4.389294 0 15 tcp 1040 ------- 0 4.9 15.0 464 11164
r 4.390126 0 15 tcp 1040 ------- 0 4.9 15.0 465 11166
r 4.390958 0 15 tcp 1040 ------- 0 4.9 15.0 466 11167
r 4.39179 0 15 tcp 1040 ------- 0 4.9 15.0 467 11169
r 4.392622 0 15 tcp 1040 ------- 0 4.9 15.0 468 11171
r 4.393454 0 15 tcp 1040 ------- 0 4.9 15.0 469 11173
r 4.394286 0 15 tcp 1040 ------- 0 4.9 15.0 470 11175
r 4.395118 0 15 tcp 1040 ------- 0 4.9 15.0 471 11177
r 4.39595 0 15 tcp 1040 ------- 0 4.9 15.0 472 11179
r 4.396782 0 15 tcp 1040 ------- 0 4.9 15.0 473 11181
r 4.398446 0 15 tcp 1040 ------- 0 4.9 15.0 474 11199
r 4.434222 0 15 tcp 1040 ------- 0 4.9 15.0 475 11327
r 4.435054 0 15 tcp 1040 ------- 0 4.9 15.0 476 11329
r 4.435886 0 15 tcp 1040 ------- 0 4.9 15.0 477 11331
r 4.436718 0 15 tcp 1040 ------- 0 4.9 15.0 478 11333
r 4.43755 0 15 tcp 1040 ------- 0 4.9 15.0 479 11334
r 4.438382 0 15 tcp 1040 ------- 0 4.9 15.0 480 11336
r 4.439214 0 15 tcp 1040 ------- 0 4.9 15.0 481 11353
r 4.440046 0 15 tcp 1040 ------- 0 4.9 15.0 482 11354
r 4.440878 0 15 tcp 1040 ------- 0 4.9 15.0 483 11355
r 4.44171 0 15 tcp 1040 ------- 0 4.9 15.0 484 11356
r 4.442542 0 15 tcp 1040 ------- 0 4.9 15.0 485 11357
r 4.443374 0 15 tcp 1040 ------- 0 4.9 15.0 486 11358
r 4.486638 0 15 tcp 1040 ------- 0 4.9 15.0 487 11464
r 4.48747 0 15 tcp 1040 ------- 0 4.9 15.0 488 11466
r 4.488302 0 15 tcp 1040 ------- 0 4.9 15.0 489 11488
r 4.489134 0 15 tcp 1040 ------- 0 4.9 15.0 490 11490
r 4.489966 0 15 tcp 1040 ------- 0 4.9 15.0 491 11492
r 4.490798 0 15 tcp 1040 ------- 0 4.9 15.0 492 11493
r 4.49163 0 15 tcp 1040 ------- 0 4.9 15.0 493 11495
r 4.492462 0 15 tcp 1040 ------- 0 4.9 15.0 494 11497
r 4.493294 0 15 tcp 1040 ------- 0 4.9 15.0 495 11499
r 4.494126 0 15 tcp 1040 ------- 0 4.9 15.0 496 11501
r 4.494958 0 15 tcp 1040 ------- 0 4.9 15.0 497 11503
r 4.49579 0 15 tcp 1040 ------- 0 4.9 15.0 498 11505
r 4.496622 0 15 tcp 1040 ------- 0 4.9 15.0 499 11507
r 4.550702 0 15 tcp 1040 ------- 0 4.9 15.0 500 11644
r 4.551534 0 15 tcp 1040 ------- 0 4.9 15.0 501 11646
r 4.552366 0 15 tcp 1040 ------- 0 4.9 15.0 502 11648
r 4.553198 0 15 tcp 1040 ------- 0 4.9 15.0 503 11670
r 4.55403 0 15 tcp 1040 ------- 0 4.9 15.0 504 11672
r 4.554862 0 15 tcp 1040 ------- 0 4.9 15.0 505 11674
r 4.555694 0 15 tcp 1040 ------- 0 4.9 15.0 506 11676
r 4.556526 0 15 tcp 1040 ------- 0 4.9 15.0 507 11677
r 4.557358 0 15 tcp 1040 ------- 0 4.9 15.0 508 11679
r 4.55819 0 15 tcp 1040 ------- 0 4.9 15.0 509 11681
r 4.559022 0 15 tcp 1040 ------- 0 4.9 15.0 510 11683
r 4.559854 0 15 tcp 1040 ------- 0 4.9 15.0 511 11685
r 4.560686 0 15 tcp 1040 ------- 0 4.9 15.0 512 11687
r 4.561518 0 15 tcp 1040 ------- 0 4.9 15.0 513 11689
r 4.615598 0 15 tcp 1040 ------- 0 4.9 15.0 514 11866
r 4.61643 0 15 tcp 1040 ------- 0 4.9 15.0 515 11868
r 4.617262 0 15 tcp 1040 ------- 0 4.9 15.0 516 11870
r 4.618094 0 15 tcp 1040 ------- 0 4.9 15.0 517 11872
r 4.618926 0 15 tcp 1040 ------- 0 4.9 15.0 518 11889
r 4.619758 0 15 tcp 1040 ------- 0 4.9 15.0 519 11890
r 4.62059 0 15 tcp 1040 ------- 0 4.9 15.0 520 11891
r 4.621422 0 15 tcp 1040 ------- 0 4.9 15.0 521 11892
r 4.622254 0 15 tcp 1040 ------- 0 4.9 15.0 522 11893
r 4.623086 0 15 tcp 1040 ------- 0 4.9 15.0 523 11894
r 4.623918 0 15 tcp 1040 ------- 0 4.9 15.0 524 11895
r 4.62475 0 15 tcp 1040 ------- 0 4.9 15.0 525 11896
r 4.625582 0 15 tcp 1040 ------- 0 4.9 15.0 526 11897
r 4.626414 0 15 tcp 1040 ------- 0 4.9 15.0 527 11898
r 4.627246 0 15 tcp 1040 ------- 0 4.9 15.0 528 11899
r 4.677166 0 15 tcp 1040 ------- 0 4.9 15.0 529 12067
r 4.677998 0 15 tcp 1040 ------- 0 4.9 15.0 530 12068
r 4.67883 0 15 tcp 1040 ------- 0 4.9 15.0 531 12069
r 4.679662 0 15 tcp 1040 ------- 0 4.9 15.0 532 12070
r 4.680494 0 15 tcp 1040 ------- 0 4.9 15.0 533 12071
r 4.681326 0 15 tcp 1040 ------- 0 4.9 15.0 534 12072
r 4.682158 0 15 tcp 1040 ------- 0 4.9 15.0 535 12073
r 4.68299 0 15 tcp 1040 ------- 0 4.9 15.0 536 12075
r 4.683822 0 15 tcp 1040 ------- 0 4.9 15.0 537 12077
r 4.684654 0 15 tcp 1040 ------- 0 4.9 15.0 538 12099
r 4.685486 0 15 tcp 1040 ------- 0 4.9 15.0 539 12100
r 4.686318 0 15 tcp 1040 ------- 0 4.9 15.0 540 12102
r 4.68715 0 15 tcp 1040 ------- 0 4.9 15.0 541 12104
r 4.687982 0 15 tcp 1040 ------- 0 4.9 15.0 542 12106
r 4.688814 0 15 tcp 1040 ------- 0 4.9 15.0 543 12108
r 4.689646 0 15 tcp 1040 ------- 0 4.9 15.0 544 12110
r 4.736238 0 15 tcp 1040 ------- 0 4.9 15.0 545 12266
r 4.73707 0 15 tcp 1040 ------- 0 4.9 15.0 546 12268
r 4.737902 0 15 tcp 1040 ------- 0 4.9 15.0 547 12270
r 4.738734 0 15 tcp 1040 ------- 0 4.9 15.0 548 12272
r 4.739566 0 15 tcp 1040 ------- 0 4.9 15.0 549 12274
r 4.740398 0 15 tcp 1040 ------- 0 4.9 15.0 550 12276
r 4.74123 0 15 tcp 1040 ------- 0 4.9 15.0 551 12278
r 4.742062 0 15 tcp 1040 ------- 0 4.9 15.0 552 12280
r 4.742894 0 15 tcp 1040 ------- 0 4.9 15.0 553 12282
r 4.743726 0 15 tcp 1040 ------- 0 4.9 15.0 554 12284
r 4.744558 0 15 tcp 1040 ------- 0 4.9 15.0 555 12286
r 4.74539 0 15 tcp 1040 ------- 0 4.9 15.0 556 12287
r 4.746222 0 15 tcp 1040 ------- 0 4.9 15.0 557 12289