r 0.111078 0 6 tcp 40 ------- 0 4.0 6.0 0 0
r 0.135207 0 6 tcp 1040 ------- 0 4.0 6.0 1 20
r 0.136039 0 6 tcp 1040 ------- 0 4.0 6.0 2 21
r 0.159336 0 6 tcp 1040 ------- 0 4.0 6.0 3 54
r 0.160168 0 6 tcp 1040 ------- 0 4.0 6.0 4 55
r 0.161 0 6 tcp 1040 ------- 0 4.0 6.0 5 57
r 0.161832 0 6 tcp 1040 ------- 0 4.0 6.0 6 58
r 0.192616 0 6 tcp 1040 ------- 0 4.0 6.0 7 114
r 0.193448 0 6 tcp 1040 ------- 0 4.0 6.0 8 115
r 0.19428 0 6 tcp 1040 ------- 0 4.0 6.0 9 117
r 0.195112 0 6 tcp 1040 ------- 0 4.0 6.0 10 118
r 0.195944 0 6 tcp 1040 ------- 0 4.0 6.0 11 120
r 0.196776 0 6 tcp 1040 ------- 0 4.0 6.0 12 121
r 0.197608 0 6 tcp 1040 ------- 0 4.0 6.0 13 123
r 0.19844 0 6 tcp 1040 ------- 0 4.0 6.0 14 124
r 0.257512 0 6 tcp 1040 ------- 0 4.0 6.0 15 234
r 0.258344 0 6 tcp 1040 ------- 0 4.0 6.0 17 237
r 0.259176 0 6 tcp 1040 ------- 0 4.0 6.0 19 240
r 0.260008 0 6 tcp 1040 ------- 0 4.0 6.0 21 243
r 0.26084 0 6 tcp 1040 ------- 0 4.0 6.0 23 246
r 0.261672 0 6 tcp 1040 ------- 0 4.0 6.0 25 249
r 0.262504 0 6 tcp 1040 ------- 0 4.0 6.0 27 252
r 0.263336 0 6 tcp 1040 ------- 0 4.0 6.0 29 255
r 0.322408 0 6 tcp 1040 ------- 0 4.0 6.0 31 467
r 0.32324 0 6 tcp 1040 ------- 0 4.0 6.0 33 470
r 0.324072 0 6 tcp 1040 ------- 0 4.0 6.0 34 472
r 0.324904 0 6 tcp 1040 ---A--- 0 4.0 6.0 16 474
r 0.36068 0 6 tcp 1040 ------- 0 4.0 6.0 18 595
r 0.361512 0 6 tcp 1040 ------- 0 4.0 6.0 19 596
r 0.385641 0 6 tcp 1040 ------- 0 4.0 6.0 20 656
r 0.386473 0 6 tcp 1040 ------- 0 4.0 6.0 21 657
r 0.387305 0 6 tcp 1040 ------- 0 4.0 6.0 22 658
r 0.388137 0 6 tcp 1040 ------- 0 4.0 6.0 23 659
r 0.418921 0 6 tcp 1040 ------- 0 4.0 6.0 24 718
r 0.419753 0 6 tcp 1040 ------- 0 4.0 6.0 25 719
r 0.420585 0 6 tcp 1040 ------- 0 4.0 6.0 26 721
r 0.421417 0 6 tcp 1040 ------- 0 4.0 6.0 27 723
r 0.422249 0 6 tcp 1040 ------- 0 4.0 6.0 28 724
r 0.423081 0 6 tcp 1040 ------- 0 4.0 6.0 29 726
r 0.468841 0 6 tcp 1040 ------- 0 4.0 6.0 30 818
r 0.469673 0 6 tcp 1040 ------- 0 4.0 6.0 31 819
r 0.470505 0 6 tcp 1040 ------- 0 4.0 6.0 32 821
r 0.471337 0 6 tcp 1040 ------- 0 4.0 6.0 33 823
r 0.472169 0 6 tcp 1040 ------- 0 4.0 6.0 34 824
r 0.473001 0 6 tcp 1040 ------- 0 4.0 6.0 35 826
r 0.473833 0 6 tcp 1040 ------- 0 4.0 6.0 36 828
r 0.474665 0 6 tcp 1040 ------- 0 4.0 6.0 37 829
r 0.475497 0 6 tcp 1040 ------- 0 4.0 6.0 38 831
r 0.533737 0 6 tcp 1040 ------- 0 4.0 6.0 39 967
r 0.534569 0 6 tcp 1040 ------- 0 4.0 6.0 40 969
r 0.535401 0 6 tcp 1040 ------- 0 4.0 6.0 41 971
r 0.536233 0 6 tcp 1040 ------- 0 4.0 6.0 43 974
r 0.537065 0 6 tcp 1040 ------- 0 4.0 6.0 44 976
r 0.537897 0 6 tcp 1040 ------- 0 4.0 6.0 45 980
r 0.538729 0 6 tcp 1040 ------- 0 4.0 6.0 46 982
r 0.590313 0 6 tcp 1040 ------- 0 4.0 6.0 47 1115
r 0.591145 0 6 tcp 1040 ------- 0 4.0 6.0 48 1117
r 0.591977 0 6 tcp 1040 ------- 0 4.0 6.0 49 1119
r 0.592809 0 6 tcp 1040 ------- 0 4.0 6.0 50 1120
r 0.593641 0 6 tcp 1040 ------- 0 4.0 6.0 51 1122
r 0.594473 0 6 tcp 1040 ------- 0 4.0 6.0 52 1124
r 0.595305 0 6 tcp 1040 ---A--- 0 4.0 6.0 42 1126
r 0.636073 0 6 tcp 1040 ------- 0 4.0 6.0 53 1244
r 0.636905 0 6 tcp 1040 ------- 0 4.0 6.0 54 1245
r 0.677673 0 6 tcp 1040 ------- 0 4.0 6.0 55 1343
r 0.678505 0 6 tcp 1040 ------- 0 4.0 6.0 56 1344
r 0.679337 0 6 tcp 1040 ------- 0 4.0 6.0 57 1346
r 0.680169 0 6 tcp 1040 ------- 0 4.0 6.0 58 1347
r 0.731753 0 6 tcp 1040 ------- 0 4.0 6.0 59 1458
r 0.732585 0 6 tcp 1040 ------- 0 4.0 6.0 60 1460
r 0.733417 0 6 tcp 1040 ------- 0 4.0 6.0 61 1462
r 0.734249 0 6 tcp 1040 ------- 0 4.0 6.0 62 1464
r 0.789993 0 6 tcp 1040 ------- 0 4.0 6.0 63 1593
r 0.790825 0 6 tcp 1040 ------- 0 4.0 6.0 64 1594
r 0.791657 0 6 tcp 1040 ------- 0 4.0 6.0 65 1596
r 0.792489 0 6 tcp 1040 ------- 0 4.0 6.0 66 1598
r 0.793321 0 6 tcp 1040 ------- 0 4.0 6.0 67 1600
r 0.854889 0 6 tcp 1040 ------- 0 4.0 6.0 68 1744
r 0.855721 0 6 tcp 1040 ------- 0 4.0 6.0 69 1746
r 0.856553 0 6 tcp 1040 ------- 0 4.0 6.0 71 1749
r 0.857385 0 6 tcp 1040 ------- 0 4.0 6.0 72 1751
r 0.858217 0 6 tcp 1040 ------- 0 4.0 6.0 73 1753
r 0.919785 0 6 tcp 1040 ------- 0 4.0 6.0 74 1906
r 0.920617 0 6 tcp 1040 ------- 0 4.0 6.0 75 1908
r 0.921449 0 6 tcp 1040 ------- 0 4.0 6.0 76 1910
r 0.922281 0 6 tcp 1040 ------- 0 4.0 6.0 77 1912
r 0.923113 0 6 tcp 1040 ---A--- 0 4.0 6.0 70 1914
r 0.979689 0 6 tcp 1040 ------- 0 4.0 6.0 78 2061
r 0.980521 0 6 tcp 1040 ------- 0 4.0 6.0 79 2062
r 1.003818 0 6 tcp 1040 ------- 0 4.0 6.0 80 2145
r 1.00465 0 6 tcp 1040 ------- 0 4.0 6.0 81 2146
r 1.005482 0 6 tcp 1040 ------- 0 4.0 6.0 82 2147
r 1.030442 0 6 tcp 1040 ------- 0 4.0 6.0 83 2191
r 1.031274 0 6 tcp 1040 ------- 0 4.0 6.0 84 2193
r 1.032106 0 6 tcp 1040 ------- 0 4.0 6.0 85 2195
r 1.032938 0 6 tcp 1040 ------- 0 4.0 6.0 86 2196
r 1.062058 0 6 tcp 1040 ------- 0 4.0 6.0 87 2255
r 1.06289 0 6 tcp 1040 ------- 0 4.0 6.0 88 2257
r 1.063722 0 6 tcp 1040 ------- 0 4.0 6.0 89 2259
r 1.064554 0 6 tcp 1040 ------- 0 4.0 6.0 90 2261
r 1.065386 0 6 tcp 1040 ------- 0 4.0 6.0 91 2262
r 1.107818 0 6 tcp 1040 ------- 0 4.0 6.0 92 2348
r 1.10865 0 6 tcp 1040 ------- 0 4.0 6.0 93 2350
r 1.109482 0 6 tcp 1040 ------- 0 4.0 6.0 94 2352
r 1.110314 0 6 tcp 1040 ------- 0 4.0 6.0 95 2354
r 1.111146 0 6 tcp 1040 ------- 0 4.0 6.0 96 2356
r 1.160234 0 6 tcp 1040 ------- 0 4.0 6.0 97 2466
r 1.161066 0 6 tcp 1040 ------- 0 4.0 6.0 98 2467
r 1.161898 0 6 tcp 1040 ------- 0 4.0 6.0 99 2469
r 1.16273 0 6 tcp 1040 ------- 0 4.0 6.0 100 2471
r 1.163562 0 6 tcp 1040 ------- 0 4.0 6.0 101 2473
r 1.164394 0 6 tcp 1040 ------- 0 4.0 6.0 102 2475
r 1.22097 0 6 tcp 1040 ------- 0 4.0 6.0 103 2602
r 1.221802 0 6 tcp 1040 ------- 0 4.0 6.0 104 2604
r 1.222634 0 6 tcp 1040 ------- 0 4.0 6.0 105 2605
r 1.223466 0 6 tcp 1040 ------- 0 4.0 6.0 106 2607
r 1.224298 0 6 tcp 1040 ------- 0 4.0 6.0 107 2609
r 1.22513 0 6 tcp 1040 ------- 0 4.0 6.0 108 2611
r 1.225962 0 6 tcp 1040 ------- 0 4.0 6.0 109 2613
r 1.284202 0 6 tcp 1040 ------- 0 4.0 6.0 110 2751
r 1.285034 0 6 tcp 1040 ------- 0 4.0 6.0 111 2753
r 1.285866 0 6 tcp 1040 ------- 0 4.0 6.0 112 2755
r 1.286698 0 6 tcp 1040 ------- 0 4.0 6.0 113 2756
r 1.28753 0 6 tcp 1040 ------- 0 4.0 6.0 114 2758
r 1.288362 0 6 tcp 1040 ------- 0 4.0 6.0 115 2760
r 1.289194 0 6 tcp 1040 ------- 0 4.0 6.0 116 2762
r 1.290026 0 6 tcp 1040 ------- 0 4.0 6.0 117 2764
r 1.349098 0 6 tcp 1040 ------- 0 4.0 6.0 118 2913
r 1.34993 0 6 tcp 1040 ------- 0 4.0 6.0 119 2915
r 1.350762 0 6 tcp 1040 ------- 0 4.0 6.0 120 2917
r 1.351594 0 6 tcp 1040 ------- 0 4.0 6.0 121 2919
r 1.352426 0 6 tcp 1040 ------- 0 4.0 6.0 122 2921
r 1.353258 0 6 tcp 1040 ------- 0 4.0 6.0 124 2924
r 1.35409 0 6 tcp 1040 ------- 0 4.0 6.0 125 2926
r 1.354922 0 6 tcp 1040 ------- 0 4.0 6.0 126 2928
r 1.389866 0 6 tcp 1040 ------- 0 4.0 6.0 127 3042
r 1.390698 0 6 tcp 1040 ------- 0 4.0 6.0 128 3044
r 1.39153 0 6 tcp 1040 ------- 0 4.0 6.0 129 3046
r 1.392362 0 6 tcp 1040 ------- 0 4.0 6.0 130 3048
r 1.393194 0 6 tcp 1040 ------- 0 4.0 6.0 131 3050
r 1.394026 0 6 tcp 1040 ------- 0 4.0 6.0 132 3052
r 1.394858 0 6 tcp 1040 ------- 0 4.0 6.0 133 3054
r 1.39569 0 6 tcp 1040 ---A--- 0 4.0 6.0 123 3056
r 1.419819 0 6 tcp 1040 ------- 0 4.0 6.0 134 3131
r 1.420651 0 6 tcp 1040 ------- 0 4.0 6.0 135 3132
r 1.453099 0 6 tcp 1040 ------- 0 4.0 6.0 136 3185
r 1.453931 0 6 tcp 1040 ------- 0 4.0 6.0 137 3186
r 1.454763 0 6 tcp 1040 ------- 0 4.0 6.0 138 3188
r 1.455595 0 6 tcp 1040 ------- 0 4.0 6.0 139 3189
r 1.488875 0 6 tcp 1040 ------- 0 4.0 6.0 140 3268
r 1.489707 0 6 tcp 1040 ------- 0 4.0 6.0 141 3270
r 1.490539 0 6 tcp 1040 ------- 0 4.0 6.0 142 3272
r 1.491371 0 6 tcp 1040 ------- 0 4.0 6.0 143 3274
r 1.531307 0 6 tcp 1040 ------- 0 4.0 6.0 144 3362
r 1.532139 0 6 tcp 1040 ------- 0 4.0 6.0 145 3363
r 1.532971 0 6 tcp 1040 ------- 0 4.0 6.0 146 3365
r 1.533803 0 6 tcp 1040 ------- 0 4.0 6.0 147 3367
r 1.534635 0 6 tcp 1040 ------- 0 4.0 6.0 148 3369
r 1.582059 0 6 tcp 1040 ------- 0 4.0 6.0 149 3474
r 1.582891 0 6 tcp 1040 ------- 0 4.0 6.0 150 3476
r 1.583723 0 6 tcp 1040 ------- 0 4.0 6.0 151 3477
r 1.584555 0 6 tcp 1040 ------- 0 4.0 6.0 152 3479
r 1.585387 0 6 tcp 1040 ------- 0 4.0 6.0 153 3481
r 1.586219 0 6 tcp 1040 ------- 0 4.0 6.0 154 3483
r 1.640299 0 6 tcp 1040 ------- 0 4.0 6.0 155 3605
r 1.641131 0 6 tcp 1040 ------- 0 4.0 6.0 156 3607
r 1.641963 0 6 tcp 1040 ------- 0 4.0 6.0 157 3609
r 1.642795 0 6 tcp 1040 ------- 0 4.0 6.0 158 3611
r 1.643627 0 6 tcp 1040 ------- 0 4.0 6.0 159 3612
r 1.644459 0 6 tcp 1040 ------- 0 4.0 6.0 160 3614
r 1.645291 0 6 tcp 1040 ------- 0 4.0 6.0 161 3616
r 1.705195 0 6 tcp 1040 ------- 0 4.0 6.0 162 3755
r 1.706027 0 6 tcp 1040 ------- 0 4.0 6.0 163 3757
r 1.706859 0 6 tcp 1040 ------- 0 4.0 6.0 164 3759
r 1.707691 0 6 tcp 1040 ------- 0 4.0 6.0 165 3761
r 1.708523 0 6 tcp 1040 ------- 0 4.0 6.0 166 3763
r 1.709355 0 6 tcp 1040 ------- 0 4.0 6.0 168 3766
r 1.710187 0 6 tcp 1040 ------- 0 4.0 6.0 169 3768
r 1.770091 0 6 tcp 1040 ------- 0 4.0 6.0 170 3919
r 1.770923 0 6 tcp 1040 ------- 0 4.0 6.0 171 3921
r 1.771755 0 6 tcp 1040 ------- 0 4.0 6.0 172 3923
r 1.772587 0 6 tcp 1040 ------- 0 4.0 6.0 173 3925
r 1.773419 0 6 tcp 1040 ------- 0 4.0 6.0 174 3927
r 1.774251 0 6 tcp 1040 ------- 0 4.0 6.0 175 3929
r 1.775083 0 6 tcp 1040 ------- 0 4.0 6.0 176 3931
r 1.824171 0 6 tcp 1040 ---A--- 0 4.0 6.0 167 4062
r 1.849964 0 6 tcp 1040 ------- 0 4.0 6.0 177 4149
r 1.850796 0 6 tcp 1040 ------- 0 4.0 6.0 178 4150
r 1.877421 0 6 tcp 1040 ------- 0 4.0 6.0 179 4194
r 1.878253 0 6 tcp 1040 ------- 0 4.0 6.0 180 4195
r 1.879085 0 6 tcp 1040 ------- 0 4.0 6.0 181 4196
r 1.879917 0 6 tcp 1040 ------- 0 4.0 6.0 182 4197
r 1.910701 0 6 tcp 1040 ------- 0 4.0 6.0 183 4261
r 1.911533 0 6 tcp 1040 ------- 0 4.0 6.0 184 4263
r 1.912365 0 6 tcp 1040 ------- 0 4.0 6.0 185 4265
r 1.913197 0 6 tcp 1040 ------- 0 4.0 6.0 186 4267
r 1.949805 0 6 tcp 1040 ------- 0 4.0 6.0 187 4348
r 1.950637 0 6 tcp 1040 ------- 0 4.0 6.0 188 4349
r 1.951469 0 6 tcp 1040 ------- 0 4.0 6.0 189 4351
r 1.952301 0 6 tcp 1040 ------- 0 4.0 6.0 190 4353
r 1.953133 0 6 tcp 1040 ------- 0 4.0 6.0 191 4355
r 1.996397 0 6 tcp 1040 ------- 0 4.0 6.0 192 4451
r 1.997229 0 6 tcp 1040 ------- 0 4.0 6.0 193 4453
r 1.998061 0 6 tcp 1040 ------- 0 4.0 6.0 194 4454
r 1.998893 0 6 tcp 1040 ------- 0 4.0 6.0 195 4456
r 1.999725 0 6 tcp 1040 ------- 0 4.0 6.0 196 4458
r 2.000557 0 6 tcp 1040 ------- 0 4.0 6.0 197 4460
r 2.051309 0 6 tcp 1040 ------- 0 4.0 6.0 198 4573
r 2.052141 0 6 tcp 1040 ------- 0 4.0 6.0 199 4575
r 2.052973 0 6 tcp 1040 ------- 0 4.0 6.0 200 4577
r 2.053805 0 6 tcp 1040 ------- 0 4.0 6.0 201 4579
r 2.054637 0 6 tcp 1040 ------- 0 4.0 6.0 202 4580
r 2.055469 0 6 tcp 1040 ------- 0 4.0 6.0 203 4582
r 2.056301 0 6 tcp 1040 ------- 0 4.0 6.0 204 4584
r 2.114541 0 6 tcp 1040 ------- 0 4.0 6.0 205 4715
r 2.115373 0 6 tcp 1040 ------- 0 4.0 6.0 206 4717
r 2.116205 0 6 tcp 1040 ------- 0 4.0 6.0 207 4719
r 2.117037 0 6 tcp 1040 ------- 0 4.0 6.0 208 4721
r 2.117869 0 6 tcp 1040 ------- 0 4.0 6.0 209 4723
r 2.118701 0 6 tcp 1040 ------- 0 4.0 6.0 210 4724
r 2.119533 0 6 tcp 1040 ------- 0 4.0 6.0 211 4726
r 2.120365 0 6 tcp 1040 ------- 0 4.0 6.0 212 4728
r 2.179437 0 6 tcp 1040 ------- 0 4.0 6.0 213 4877
r 2.180269 0 6 tcp 1040 ------- 0 4.0 6.0 214 4879
r 2.181101 0 6 tcp 1040 ------- 0 4.0 6.0 215 4881
r 2.181933 0 6 tcp 1040 ------- 0 4.0 6.0 216 4883
r 2.182765 0 6 tcp 1040 ------- 0 4.0 6.0 217 4885
r 2.183597 0 6 tcp 1040 ------- 0 4.0 6.0 218 4887
r 2.184429 0 6 tcp 1040 ------- 0 4.0 6.0 219 4889
r 2.185261 0 6 tcp 1040 ------- 0 4.0 6.0 221 4892
r 2.243501 0 6 tcp 1040 ------- 0 4.0 6.0 222 5034
r 2.244333 0 6 tcp 1040 ------- 0 4.0 6.0 223 5036
r 2.245165 0 6 tcp 1040 ------- 0 4.0 6.0 224 5038
r 2.245997 0 6 tcp 1040 ------- 0 4.0 6.0 225 5040
r 2.246829 0 6 tcp 1040 ------- 0 4.0 6.0 226 5042
r 2.247661 0 6 tcp 1040 ------- 0 4.0 6.0 227 5044
r 2.248493 0 6 tcp 1040 ------- 0 4.0 6.0 228 5046
r 2.249325 0 6 tcp 1040 ------- 0 4.0 6.0 229 5048
r 2.269293 0 6 tcp 1040 ------- 0 4.0 6.0 230 5142
r 2.270125 0 6 tcp 1040 ---A--- 0 4.0 6.0 220 5144
r 2.29675 0 6 tcp 1040 ------- 0 4.0 6.0 231 5185
r 2.297582 0 6 tcp 1040 ------- 0 4.0 6.0 232 5186
r 2.332526 0 6 tcp 1040 ------- 0 4.0 6.0 233 5246
r 2.333358 0 6 tcp 1040 ------- 0 4.0 6.0 234 5247
r 2.33419 0 6 tcp 1040 ------- 0 4.0 6.0 235 5249
r 2.335022 0 6 tcp 1040 ------- 0 4.0 6.0 236 5250
r 2.366638 0 6 tcp 1040 ------- 0 4.0 6.0 237 5330
r 2.36747 0 6 tcp 1040 ------- 0 4.0 6.0 238 5332
r 2.368302 0 6 tcp 1040 ------- 0 4.0 6.0 239 5334
r 2.369134 0 6 tcp 1040 ------- 0 4.0 6.0 240 5336
r 2.407406 0 6 tcp 1040 ------- 0 4.0 6.0 241 5420
r 2.408238 0 6 tcp 1040 ------- 0 4.0 6.0 242 5421
r 2.40907 0 6 tcp 1040 ------- 0 4.0 6.0 243 5423
r 2.409902 0 6 tcp 1040 ------- 0 4.0 6.0 244 5425
r 2.410734 0 6 tcp 1040 ------- 0 4.0 6.0 245 5427
r 2.456494 0 6 tcp 1040 ------- 0 4.0 6.0 246 5528
r 2.457326 0 6 tcp 1040 ------- 0 4.0 6.0 247 5530
r 2.458158 0 6 tcp 1040 ------- 0 4.0 6.0 248 5531
r 2.45899 0 6 tcp 1040 ------- 0 4.0 6.0 249 5533
r 2.459822 0 6 tcp 1040 ------- 0 4.0 6.0 250 5535
r 2.460654 0 6 tcp 1040 ------- 0 4.0 6.0 251 5537
r 2.513902 0 6 tcp 1040 ------- 0 4.0 6.0 252 5656
r 2.514734 0 6 tcp 1040 ------- 0 4.0 6.0 253 5658
r 2.515566 0 6 tcp 1040 ------- 0 4.0 6.0 254 5660
r 2.516398 0 6 tcp 1040 ------- 0 4.0 6.0 255 5662
r 2.51723 0 6 tcp 1040 ------- 0 4.0 6.0 256 5663
r 2.518062 0 6 tcp 1040 ------- 0 4.0 6.0 257 5665
r 2.518894 0 6 tcp 1040 ------- 0 4.0 6.0 258 5667
r 2.578798 0 6 tcp 1040 ------- 0 4.0 6.0 259 5804
r 2.57963 0 6 tcp 1040 ------- 0 4.0 6.0 260 5806
r 2.580462 0 6 tcp 1040 ------- 0 4.0 6.0 261 5808
r 2.581294 0 6 tcp 1040 ------- 0 4.0 6.0 262 5810
r 2.582126 0 6 tcp 1040 ------- 0 4.0 6.0 263 5812
r 2.582958 0 6 tcp 1040 ------- 0 4.0 6.0 265 5815
r 2.58379 0 6 tcp 1040 ------- 0 4.0 6.0 266 5817
r 2.643694 0 6 tcp 1040 ------- 0 4.0 6.0 267 5969
r 2.644526 0 6 tcp 1040 ------- 0 4.0 6.0 268 5971
r 2.645358 0 6 tcp 1040 ------- 0 4.0 6.0 269 5973
r 2.64619 0 6 tcp 1040 ------- 0 4.0 6.0 270 5975
r 2.647022 0 6 tcp 1040 ------- 0 4.0 6.0 271 5977
r 2.647854 0 6 tcp 1040 ------- 0 4.0 6.0 272 5979
r 2.648686 0 6 tcp 1040 ------- 0 4.0 6.0 273 5981
r 2.703598 0 6 tcp 1040 ---A--- 0 4.0 6.0 264 6119
r 2.728559 0 6 tcp 1040 ------- 0 4.0 6.0 274 6209
r 2.729391 0 6 tcp 1040 ------- 0 4.0 6.0 275 6210
r 2.754352 0 6 tcp 1040 ------- 0 4.0 6.0 276 6249
r 2.755184 0 6 tcp 1040 ------- 0 4.0 6.0 277 6250
r 2.756016 0 6 tcp 1040 ------- 0 4.0 6.0 278 6252
r 2.756848 0 6 tcp 1040 ------- 0 4.0 6.0 279 6253
r 2.787632 0 6 tcp 1040 ------- 0 4.0 6.0 280 6311
r 2.788464 0 6 tcp 1040 ------- 0 4.0 6.0 281 6313
r 2.789296 0 6 tcp 1040 ------- 0 4.0 6.0 282 6315
r 2.790128 0 6 tcp 1040 ------- 0 4.0 6.0 283 6317
r 2.822576 0 6 tcp 1040 ------- 0 4.0 6.0 284 6393
r 2.823408 0 6 tcp 1040 ------- 0 4.0 6.0 285 6394
r 2.82424 0 6 tcp 1040 ------- 0 4.0 6.0 286 6396
r 2.825072 0 6 tcp 1040 ------- 0 4.0 6.0 287 6398
r 2.825904 0 6 tcp 1040 ------- 0 4.0 6.0 288 6400
r 2.86584 0 6 tcp 1040 ------- 0 4.0 6.0 289 6487
r 2.866672 0 6 tcp 1040 ------- 0 4.0 6.0 290 6489
r 2.867504 0 6 tcp 1040 ------- 0 4.0 6.0 291 6490
r 2.868336 0 6 tcp 1040 ------- 0 4.0 6.0 292 6492
r 2.869168 0 6 tcp 1040 ------- 0 4.0 6.0 293 6494
r 2.87 0 6 tcp 1040 ------- 0 4.0 6.0 294 6496
r 2.917424 0 6 tcp 1040 ------- 0 4.0 6.0 295 6601
r 2.918256 0 6 tcp 1040 ------- 0 4.0 6.0 296 6603
r 2.919088 0 6 tcp 1040 ------- 0 4.0 6.0 297 6605
r 2.91992 0 6 tcp 1040 ------- 0 4.0 6.0 298 6607
r 2.920752 0 6 tcp 1040 ------- 0 4.0 6.0 299 6608
r 2.921584 0 6 tcp 1040 ------- 0 4.0 6.0 300 6610
r 2.922416 0 6 tcp 1040 ------- 0 4.0 6.0 301 6612
r 2.977328 0 6 tcp 1040 ------- 0 4.0 6.0 302 6735
r 2.97816 0 6 tcp 1040 ------- 0 4.0 6.0 303 6737
r 2.978992 0 6 tcp 1040 ------- 0 4.0 6.0 304 6739
r 2.979824 0 6 tcp 1040 ------- 0 4.0 6.0 305 6741
r 2.980656 0 6 tcp 1040 ------- 0 4.0 6.0 306 6743
r 2.981488 0 6 tcp 1040 ------- 0 4.0 6.0 307 6744
r 2.98232 0 6 tcp 1040 ------- 0 4.0 6.0 308 6746
r 2.983152 0 6 tcp 1040 ------- 0 4.0 6.0 309 6748
r 3.042224 0 6 tcp 1040 ------- 0 4.0 6.0 310 6889
r 3.043056 0 6 tcp 1040 ------- 0 4.0 6.0 311 6891
r 3.043888 0 6 tcp 1040 ------- 0 4.0 6.0 312 6893
r 3.04472 0 6 tcp 1040 ------- 0 4.0 6.0 313 6895
r 3.045552 0 6 tcp 1040 ------- 0 4.0 6.0 314 6897
r 3.046384 0 6 tcp 1040 ------- 0 4.0 6.0 315 6899
r 3.047216 0 6 tcp 1040 ------- 0 4.0 6.0 316 6901
r 3.048048 0 6 tcp 1040 ------- 0 4.0 6.0 318 6904
r 3.10712 0 6 tcp 1040 ------- 0 4.0 6.0 319 7091
r 3.107952 0 6 tcp 1040 ------- 0 4.0 6.0 320 7113
r 3.108784 0 6 tcp 1040 ------- 0 4.0 6.0 321 7115
r 3.109616 0 6 tcp 1040 ------- 0 4.0 6.0 322 7117
r 3.110448 0 6 tcp 1040 ------- 0 4.0 6.0 323 7119
r 3.11128 0 6 tcp 1040 ------- 0 4.0 6.0 324 7121
r 3.112112 0 6 tcp 1040 ------- 0 4.0 6.0 325 7123
r 3.112944 0 6 tcp 1040 ------- 0 4.0 6.0 326 7125
r 3.15288 0 6 tcp 1040 ------- 0 4.0 6.0 327 7286
r 3.153712 0 6 tcp 1040 ---A--- 0 4.0 6.0 317 7302
r 3.183543 0 6 tcp 1040 ------- 0 4.0 6.0 328 7413
r 3.184375 0 6 tcp 1040 ------- 0 4.0 6.0 329 7414
r 3.221145 0 6 tcp 1040 ------- 0 4.0 6.0 330 7497
r 3.221977 0 6 tcp 1040 ------- 0 4.0 6.0 331 7498
r 3.222809 0 6 tcp 1040 ------- 0 4.0 6.0 332 7499
r 3.223641 0 6 tcp 1040 ------- 0 4.0 6.0 333 7500
r 3.261913 0 6 tcp 1040 ------- 0 4.0 6.0 334 7615
r 3.262745 0 6 tcp 1040 ------- 0 4.0 6.0 335 7616
r 3.263577 0 6 tcp 1040 ------- 0 4.0 6.0 336 7617
r 3.264409 0 6 tcp 1040 ------- 0 4.0 6.0 337 7618
r 3.306841 0 6 tcp 1040 ------- 0 4.0 6.0 338 7751
r 3.307673 0 6 tcp 1040 ------- 0 4.0 6.0 339 7752
r 3.308505 0 6 tcp 1040 ------- 0 4.0 6.0 340 7754
r 3.309337 0 6 tcp 1040 ------- 0 4.0 6.0 341 7756
r 3.310169 0 6 tcp 1040 ------- 0 4.0 6.0 342 7758
r 3.360089 0 6 tcp 1040 ------- 0 4.0 6.0 343 7890
r 3.360921 0 6 tcp 1040 ------- 0 4.0 6.0 344 7891
r 3.361753 0 6 tcp 1040 ------- 0 4.0 6.0 345 7892
r 3.362585 0 6 tcp 1040 ------- 0 4.0 6.0 346 7894
r 3.363417 0 6 tcp 1040 ------- 0 4.0 6.0 347 7896
r 3.364249 0 6 tcp 1040 ------- 0 4.0 6.0 348 7898
r 3.421657 0 6 tcp 1040 ------- 0 4.0 6.0 349 8069
r 3.422489 0 6 tcp 1040 ------- 0 4.0 6.0 350 8070
r 3.423321 0 6 tcp 1040 ------- 0 4.0 6.0 351 8071
r 3.424153 0 6 tcp 1040 ------- 0 4.0 6.0 352 8073
r 3.424985 0 6 tcp 1040 ------- 0 4.0 6.0 353 8074
r 3.425817 0 6 tcp 1040 ------- 0 4.0 6.0 354 8076
r 3.426649 0 6 tcp 1040 ------- 0 4.0 6.0 355 8098
r 3.486553 0 6 tcp 1040 ------- 0 4.0 6.0 356 8285
r 3.487385 0 6 tcp 1040 ------- 0 4.0 6.0 357 8287
r 3.488217 0 6 tcp 1040 ------- 0 4.0 6.0 358 8289
r 3.489049 0 6 tcp 1040 ------- 0 4.0 6.0 359 8291
r 3.489881 0 6 tcp 1040 ------- 0 4.0 6.0 360 8293
r 3.490713 0 6 tcp 1040 ------- 0 4.0 6.0 362 8296
r 3.491545 0 6 tcp 1040 ------- 0 4.0 6.0 363 8298
r 3.551449 0 6 tcp 1040 ------- 0 4.0 6.0 364 8498
r 3.552281 0 6 tcp 1040 ------- 0 4.0 6.0 365 8499
r 3.553113 0 6 tcp 1040 ------- 0 4.0 6.0 366 8500
r 3.553945 0 6 tcp 1040 ------- 0 4.0 6.0 367 8501
r 3.554777 0 6 tcp 1040 ------- 0 4.0 6.0 368 8502
r 3.555609 0 6 tcp 1040 ------- 0 4.0 6.0 369 8503
r 3.556441 0 6 tcp 1040 ------- 0 4.0 6.0 370 8504
r 3.603865 0 6 tcp 1040 ---A--- 0 4.0 6.0 361 8691
r 3.636313 0 6 tcp 1040 ------- 0 4.0 6.0 371 8813
r 3.637145 0 6 tcp 1040 ------- 0 4.0 6.0 372 8814
r 3.682326 0 6 tcp 1040 ------- 0 4.0 6.0 373 8944
r 3.683158 0 6 tcp 1040 ------- 0 4.0 6.0 374 8945
r 3.68399 0 6 tcp 1040 ------- 0 4.0 6.0 375 8947
r 3.684822 0 6 tcp 1040 ------- 0 4.0 6.0 376 8948
r 3.733078 0 6 tcp 1040 ------- 0 4.0 6.0 377 9078
r 3.73391 0 6 tcp 1040 ------- 0 4.0 6.0 378 9079
r 3.734742 0 6 tcp 1040 ------- 0 4.0 6.0 379 9081
r 3.735574 0 6 tcp 1040 ------- 0 4.0 6.0 380 9083
r 3.788822 0 6 tcp 1040 ------- 0 4.0 6.0 381 9249
r 3.789654 0 6 tcp 1040 ------- 0 4.0 6.0 382 9250
r 3.790486 0 6 tcp 1040 ------- 0 4.0 6.0 383 9251
r 3.791318 0 6 tcp 1040 ------- 0 4.0 6.0 384 9252
r 3.79215 0 6 tcp 1040 ------- 0 4.0 6.0 385 9253
r 3.851222 0 6 tcp 1040 ------- 0 4.0 6.0 386 9428
r 3.852054 0 6 tcp 1040 ------- 0 4.0 6.0 387 9429
r 3.852886 0 6 tcp 1040 ------- 0 4.0 6.0 388 9430
r 3.853718 0 6 tcp 1040 ------- 0 4.0 6.0 389 9432
r 3.85455 0 6 tcp 1040 ------- 0 4.0 6.0 390 9434
r 3.855382 0 6 tcp 1040 ------- 0 4.0 6.0 391 9436
r 3.916118 0 6 tcp 1040 ------- 0 4.0 6.0 392 9647
r 3.91695 0 6 tcp 1040 ------- 0 4.0 6.0 393 9649
r 3.917782 0 6 tcp 1040 ------- 0 4.0 6.0 394 9651
r 3.918614 0 6 tcp 1040 ------- 0 4.0 6.0 395 9653
r 3.919446 0 6 tcp 1040 ------- 0 4.0 6.0 397 9656
r 3.920278 0 6 tcp 1040 ------- 0 4.0 6.0 398 9658
r 3.977686 0 6 tcp 1040 ------- 0 4.0 6.0 399 9852
r 3.978518 0 6 tcp 1040 ------- 0 4.0 6.0 400 9853
r 3.97935 0 6 tcp 1040 ------- 0 4.0 6.0 401 9854
r 3.980182 0 6 tcp 1040 ------- 0 4.0 6.0 402 9855
r 3.981014 0 6 tcp 1040 ------- 0 4.0 6.0 403 9856
r 3.981846 0 6 tcp 1040 ------- 0 4.0 6.0 404 9857
r 4.018454 0 6 tcp 1040 ---A--- 0 4.0 6.0 396 10006
r 4.059822 0 6 tcp 1040 ------- 0 4.0 6.0 405 10154
r 4.060654 0 6 tcp 1040 ------- 0 4.0 6.0 406 10155
r 4.111406 0 6 tcp 1040 ------- 0 4.0 6.0 407 10271
r 4.112238 0 6 tcp 1040 ------- 0 4.0 6.0 408 10272
r 4.11307 0 6 tcp 1040 ------- 0 4.0 6.0 409 10294
r 4.169646 0 6 tcp 1040 ------- 0 4.0 6.0 410 10443
r 4.170478 0 6 tcp 1040 ------- 0 4.0 6.0 411 10445
r 4.17131 0 6 tcp 1040 ------- 0 4.0 6.0 412 10447
r 4.172142 0 6 tcp 1040 ------- 0 4.0 6.0 413 10448
r 4.234542 0 6 tcp 1040 ------- 0 4.0 6.0 414 10651
r 4.235374 0 6 tcp 1040 ------- 0 4.0 6.0 415 10653
r 4.236206 0 6 tcp 1040 ------- 0 4.0 6.0 416 10655
r 4.237038 0 6 tcp 1040 ------- 0 4.0 6.0 417 10657
r 4.30027 0 6 tcp 1040 ------- 0 4.0 6.0 419 10869
r 4.301102 0 6 tcp 1040 ------- 0 4.0 6.0 420 10870
r 4.301934 0 6 tcp 1040 ------- 0 4.0 6.0 421 10871
r 4.302766 0 6 tcp 1040 ------- 0 4.0 6.0 422 10872
r 4.361838 0 6 tcp 1040 ------- 0 4.0 6.0 423 11053
r 4.36267 0 6 tcp 1040 ------- 0 4.0 6.0 424 11055
r 4.363502 0 6 tcp 1040 ---A--- 0 4.0 6.0 418 11077
r 4.410094 0 6 tcp 1040 ------- 0 4.0 6.0 425 11247
r 4.410926 0 6 tcp 1040 ------- 0 4.0 6.0 426 11248
r 4.456686 0 6 tcp 1040 ------- 0 4.0 6.0 427 11399
r 4.457518 0 6 tcp 1040 ------- 0 4.0 6.0 428 11401
r 4.514094 0 6 tcp 1040 ------- 0 4.0 6.0 429 11547
r 4.514926 0 6 tcp 1040 ------- 0 4.0 6.0 430 11548
r 4.515758 0 6 tcp 1040 ------- 0 4.0 6.0 431 11549
r 4.580654 0 6 tcp 1040 ------- 0 4.0 6.0 432 11736
r 4.581486 0 6 tcp 1040 ------- 0 4.0 6.0 433 11738
r 4.64555 0 6 tcp 1040 ------- 0 4.0 6.0 436 11976
r 4.646382 0 6 tcp 1040 ------- 0 4.0 6.0 437 11977
r 4.702958 0 6 tcp 1040 ------- 0 4.0 6.0 438 12150
r 4.70379 0 6 tcp 1040 ------- 0 4.0 6.0 439 12151
r 4.756206 0 6 tcp 1040 ---A--- 0 4.0 6.0 434 12321
r 4.816942 0 6 tcp 1040 ------- 0 4.0 6.0 435 12498
r 4.817774 0 6 tcp 1040 ------- 0 4.0 6.0 436 12499
r 4.881838 0 6 tcp 1040 ------- 0 4.0 6.0 440 12718
r 4.88267 0 6 tcp 1040 ------- 0 4.0 6.0 442 12721
r 4.945902 0 6 tcp 1040 ------- 0 4.0 6.0 443 12924
r 4.99083 0 6 tcp 1040 ------- 0 4.0 6.0 444 13108
r 5.026014 0 6 tcp 1040 ---A--- 0 4.0 6.0 441 13227
r 5.066782 0 6 tcp 1040 ------- 0 4.0 6.0 445 13351
r 5.067614 0 6 tcp 1040 ------- 0 4.0 6.0 446 13352
r 5.119198 0 6 tcp 1040 ------- 0 4.0 6.0 447 13493
r 5.12003 0 6 tcp 1040 ------- 0 4.0 6.0 448 13494
r 5.179102 0 6 tcp 1040 ------- 0 4.0 6.0 449 13670
r 5.179934 0 6 tcp 1040 ------- 0 4.0 6.0 450 13671
r 5.180766 0 6 tcp 1040 ------- 0 4.0 6.0 451 13672
r 5.245662 0 6 tcp 1040 ------- 0 4.0 6.0 452 13855
r 5.246494 0 6 tcp 1040 ------- 0 4.0 6.0 453 13856
r 5.247326 0 6 tcp 1040 ------- 0 4.0 6.0 454 13857
r 5.248158 0 6 tcp 1040 ------- 0 4.0 6.0 455 13858
r 5.310558 0 6 tcp 1040 ------- 0 4.0 6.0 456 14078
r 5.31139 0 6 tcp 1040 ------- 0 4.0 6.0 457 14080
r 5.312222 0 6 tcp 1040 ------- 0 4.0 6.0 458 14082
r 5.313054 0 6 tcp 1040 ------- 0 4.0 6.0 459 14084
r 5.36963 0 6 tcp 1040 ------- 0 4.0 6.0 461 14275
r 5.370462 0 6 tcp 1040 ------- 0 4.0 6.0 462 14276
r 5.371294 0 6 tcp 1040 ------- 0 4.0 6.0 463 14277
r 5.372126 0 6 tcp 1040 ------- 0 4.0 6.0 464 14278
r 5.418718 0 6 tcp 1040 ------- 0 4.0 6.0 465 14439
r 5.41955 0 6 tcp 1040 ------- 0 4.0 6.0 466 14440
r 5.420382 0 6 tcp 1040 ---A--- 0 4.0 6.0 460 14442
r 5.474462 0 6 tcp 1040 ------- 0 4.0 6.0 467 14610
r 5.475294 0 6 tcp 1040 ------- 0 4.0 6.0 468 14611
r 5.54019 0 6 tcp 1040 ------- 0 4.0 6.0 469 14793
r 5.541022 0 6 tcp 1040 ------- 0 4.0 6.0 470 14795
r 5.605086 0 6 tcp 1040 ------- 0 4.0 6.0 471 15010
r 5.605918 0 6 tcp 1040 ------- 0 4.0 6.0 473 15013
r 5.670814 0 6 tcp 1040 ------- 0 4.0 6.0 474 15220
r 5.671646 0 6 tcp 1040 ------- 0 4.0 6.0 475 15221
r 5.726558 0 6 tcp 1040 ------- 0 4.0 6.0 476 15421
r 5.72739 0 6 tcp 1040 ---A--- 0 4.0 6.0 472 15423
r 5.754014 0 6 tcp 1040 ------- 0 4.0 6.0 477 15562
r 5.754846 0 6 tcp 1040 ------- 0 4.0 6.0 478 15563
r 5.795902 0 6 tcp 1040 ------- 0 4.0 6.0 479 15646
r 5.796734 0 6 tcp 1040 ------- 0 4.0 6.0 480 15647
r 5.837825 0 6 tcp 1040 ------- 0 4.0 6.0 481 15765
r 5.838657 0 6 tcp 1040 ------- 0 4.0 6.0 482 15766
r 5.839489 0 6 tcp 1040 ------- 0 4.0 6.0 483 15768
r 5.890241 0 6 tcp 1040 ------- 0 4.0 6.0 484 15915
r 5.891073 0 6 tcp 1040 ------- 0 4.0 6.0 485 15917
r 5.891905 0 6 tcp 1040 ------- 0 4.0 6.0 486 15918
r 5.892737 0 6 tcp 1040 ------- 0 4.0 6.0 487 15935
r 5.950977 0 6 tcp 1040 ------- 0 4.0 6.0 488 16091
r 5.951809 0 6 tcp 1040 ------- 0 4.0 6.0 489 16093
r 5.952641 0 6 tcp 1040 ------- 0 4.0 6.0 490 16095
r 5.953473 0 6 tcp 1040 ------- 0 4.0 6.0 491 16097
r 5.954305 0 6 tcp 1040 ------- 0 4.0 6.0 492 16098
r 6.016705 0 6 tcp 1040 ------- 0 4.0 6.0 493 16297
r 6.017537 0 6 tcp 1040 ------- 0 4.0 6.0 494 16298
r 6.018369 0 6 tcp 1040 ------- 0 4.0 6.0 495 16299
r 6.019201 0 6 tcp 1040 ------- 0 4.0 6.0 496 16300
r 6.020033 0 6 tcp 1040 ------- 0 4.0 6.0 497 16301
r 6.020865 0 6 tcp 1040 ------- 0 4.0 6.0 498 16302
r 6.081601 0 6 tcp 1040 ------- 0 4.0 6.0 499 16471
r 6.082433 0 6 tcp 1040 ------- 0 4.0 6.0 500 16473
r 6.083265 0 6 tcp 1040 ------- 0 4.0 6.0 501 16475
r 6.084097 0 6 tcp 1040 ------- 0 4.0 6.0 502 16477
r 6.084929 0 6 tcp 1040 ------- 0 4.0 6.0 503 16479
r 6.085761 0 6 tcp 1040 ------- 0 4.0 6.0 504 16481
r 6.134849 0 6 tcp 1040 ------- 0 4.0 6.0 506 16617
r 6.135681 0 6 tcp 1040 ------- 0 4.0 6.0 507 16619
r 6.136513 0 6 tcp 1040 ------- 0 4.0 6.0 508 16621
r 6.137345 0 6 tcp 1040 ------- 0 4.0 6.0 509 16623
r 6.138177 0 6 tcp 1040 ------- 0 4.0 6.0 510 16625
r 6.139009 0 6 tcp 1040 ------- 0 4.0 6.0 511 16627
r 6.169793 0 6 tcp 1040 ------- 0 4.0 6.0 512 16723
r 6.170625 0 6 tcp 1040 ------- 0 4.0 6.0 513 16725
r 6.171457 0 6 tcp 1040 ---A--- 0 4.0 6.0 505 16727
r 6.205569 0 6 tcp 1040 ------- 0 4.0 6.0 514 16810
r 6.206401 0 6 tcp 1040 ------- 0 4.0 6.0 515 16811
r 6.248833 0 6 tcp 1040 ------- 0 4.0 6.0 516 16903
r 6.249665 0 6 tcp 1040 ------- 0 4.0 6.0 517 16904
r 6.250497 0 6 tcp 1040 ------- 0 4.0 6.0 518 16906
r 6.297089 0 6 tcp 1040 ------- 0 4.0 6.0 519 17013
r 6.297921 0 6 tcp 1040 ------- 0 4.0 6.0 520 17015
r 6.298753 0 6 tcp 1040 ------- 0 4.0 6.0 521 17017
r 6.299585 0 6 tcp 1040 ------- 0 4.0 6.0 522 17018
r 6.352833 0 6 tcp 1040 ------- 0 4.0 6.0 523 17138
r 6.353665 0 6 tcp 1040 ------- 0 4.0 6.0 524 17140
r 6.354497 0 6 tcp 1040 ------- 0 4.0 6.0 525 17142
r 6.355329 0 6 tcp 1040 ------- 0 4.0 6.0 526 17144
r 6.356161 0 6 tcp 1040 ------- 0 4.0 6.0 527 17145
r 6.416897 0 6 tcp 1040 ------- 0 4.0 6.0 528 17282
r 6.417729 0 6 tcp 1040 ------- 0 4.0 6.0 529 17284
r 6.418561 0 6 tcp 1040 ------- 0 4.0 6.0 530 17286
r 6.419393 0 6 tcp 1040 ------- 0 4.0 6.0 531 17288
r 6.420225 0 6 tcp 1040 ------- 0 4.0 6.0 532 17290
r 6.481793 0 6 tcp 1040 ------- 0 4.0 6.0 533 17445
r 6.482625 0 6 tcp 1040 ------- 0 4.0 6.0 535 17448
r 6.483457 0 6 tcp 1040 ------- 0 4.0 6.0 536 17450
r 6.484289 0 6 tcp 1040 ------- 0 4.0 6.0 537 17452
r 6.485121 0 6 tcp 1040 ------- 0 4.0 6.0 538 17454
r 6.545025 0 6 tcp 1040 ------- 0 4.0 6.0 539 17601
r 6.545857 0 6 tcp 1040 ------- 0 4.0 6.0 540 17603
r 6.546689 0 6 tcp 1040 ------- 0 4.0 6.0 541 17605
r 6.547521 0 6 tcp 1040 ---A--- 0 4.0 6.0 534 17607
r 6.57165 0 6 tcp 1040 ------- 0 4.0 6.0 542 17708
r 6.572482 0 6 tcp 1040 ------- 0 4.0 6.0 543 17709
r 6.60077 0 6 tcp 1040 ------- 0 4.0 6.0 544 17746
r 6.601602 0 6 tcp 1040 ------- 0 4.0 6.0 545 17747
r 6.602434 0 6 tcp 1040 ------- 0 4.0 6.0 546 17749
r 6.635715 0 6 tcp 1040 ------- 0 4.0 6.0 547 17817
r 6.636547 0 6 tcp 1040 ------- 0 4.0 6.0 548 17819
r 6.637379 0 6 tcp 1040 ------- 0 4.0 6.0 549 17821
r 6.638211 0 6 tcp 1040 ------- 0 4.0 6.0 550 17822
r 6.674819 0 6 tcp 1040 ------- 0 4.0 6.0 551 17906
r 6.675651 0 6 tcp 1040 ------- 0 4.0 6.0 552 17908
r 6.676483 0 6 tcp 1040 ------- 0 4.0 6.0 553 17910
r 6.677315 0 6 tcp 1040 ------- 0 4.0 6.0 554 17912
r 6.678147 0 6 tcp 1040 ------- 0 4.0 6.0 555 17913
r 6.722243 0 6 tcp 1040 ------- 0 4.0 6.0 556 18010
r 6.723075 0 6 tcp 1040 ------- 0 4.0 6.0 557 18012
r 6.723907 0 6 tcp 1040 ------- 0 4.0 6.0 558 18014
r 6.724739 0 6 tcp 1040 ------- 0 4.0 6.0 559 18016
r 6.725571 0 6 tcp 1040 ------- 0 4.0 6.0 560 18018
r 6.775491 0 6 tcp 1040 ------- 0 4.0 6.0 561 18131
r 6.776323 0 6 tcp 1040 ------- 0 4.0 6.0 562 18132
r 6.777155 0 6 tcp 1040 ------- 0 4.0 6.0 563 18134
r 6.777987 0 6 tcp 1040 ------- 0 4.0 6.0 564 18136
r 6.778819 0 6 tcp 1040 ------- 0 4.0 6.0 565 18138
r 6.779651 0 6 tcp 1040 ------- 0 4.0 6.0 566 18140
r 6.837059 0 6 tcp 1040 ------- 0 4.0 6.0 567 18269
r 6.837891 0 6 tcp 1040 ------- 0 4.0 6.0 568 18271
r 6.838723 0 6 tcp 1040 ------- 0 4.0 6.0 569 18272
r 6.839555 0 6 tcp 1040 ------- 0 4.0 6.0 570 18274
r 6.840387 0 6 tcp 1040 ------- 0 4.0 6.0 571 18276
r 6.841219 0 6 tcp 1040 ------- 0 4.0 6.0 572 18278
r 6.842051 0 6 tcp 1040 ------- 0 4.0 6.0 573 18280
r 6.901955 0 6 tcp 1040 ------- 0 4.0 6.0 574 18427
r 6.902787 0 6 tcp 1040 ------- 0 4.0 6.0 575 18429
r 6.903619 0 6 tcp 1040 ------- 0 4.0 6.0 576 18431
r 6.904451 0 6 tcp 1040 ------- 0 4.0 6.0 578 18434
r 6.905283 0 6 tcp 1040 ------- 0 4.0 6.0 579 18436