r 4.470661 0 10 tcp 40 ------- 0 4.4 10.0 0 3697
r 4.49479 0 10 tcp 1040 ------- 0 4.4 10.0 1 3737
r 4.495622 0 10 tcp 1040 ------- 0 4.4 10.0 2 3738
r 4.518919 0 10 tcp 1040 ------- 0 4.4 10.0 3 3780
r 4.519751 0 10 tcp 1040 ------- 0 4.4 10.0 4 3781
r 4.520583 0 10 tcp 1040 ------- 0 4.4 10.0 5 3783
r 4.521415 0 10 tcp 1040 ------- 0 4.4 10.0 6 3784
r 4.543047 0 10 tcp 1040 ------- 0 4.4 10.0 7 3826
r 4.543879 0 10 tcp 1040 ------- 0 4.4 10.0 8 3827
r 4.544711 0 10 tcp 1040 ------- 0 4.4 10.0 9 3829
r 4.545543 0 10 tcp 1040 ------- 0 4.4 10.0 10 3830
r 4.546375 0 10 tcp 1040 ------- 0 4.4 10.0 11 3832
r 4.547207 0 10 tcp 1040 ------- 0 4.4 10.0 12 3833
r 4.548039 0 10 tcp 1040 ------- 0 4.4 10.0 13 3835
r 4.548871 0 10 tcp 1040 ------- 0 4.4 10.0 14 3836
r 4.567176 0 10 tcp 1040 ------- 0 4.4 10.0 15 3878
r 4.568008 0 10 tcp 1040 ------- 0 4.4 10.0 16 3879
r 4.56884 0 10 tcp 1040 ------- 0 4.4 10.0 17 3881
r 4.569672 0 10 tcp 1040 ------- 0 4.4 10.0 18 3882
r 4.570504 0 10 tcp 1040 ------- 0 4.4 10.0 19 3884
r 4.571336 0 10 tcp 1040 ------- 0 4.4 10.0 20 3885
r 4.572168 0 10 tcp 1040 ------- 0 4.4 10.0 21 3887
r 4.573 0 10 tcp 1040 ------- 0 4.4 10.0 22 3888
r 4.573832 0 10 tcp 1040 ------- 0 4.4 10.0 23 3890
r 4.574664 0 10 tcp 1040 ------- 0 4.4 10.0 24 3891
r 4.575496 0 10 tcp 1040 ------- 0 4.4 10.0 25 3893
r 4.576328 0 10 tcp 1040 ------- 0 4.4 10.0 26 3894
r 4.57716 0 10 tcp 1040 ------- 0 4.4 10.0 27 3896
r 4.577992 0 10 tcp 1040 ------- 0 4.4 10.0 28 3897
r 4.578824 0 10 tcp 1040 ------- 0 4.4 10.0 29 3899
r 4.579656 0 10 tcp 1040 ------- 0 4.4 10.0 30 3900
r 4.597128 0 10 tcp 1040 ------- 0 4.4 10.0 31 3942
r 4.59796 0 10 tcp 1040 ------- 0 4.4 10.0 32 3943
r 4.598792 0 10 tcp 1040 ------- 0 4.4 10.0 33 3945
r 4.599624 0 10 tcp 1040 ------- 0 4.4 10.0 34 3946
r 4.600456 0 10 tcp 1040 ------- 0 4.4 10.0 35 3948
r 4.601288 0 10 tcp 1040 ------- 0 4.4 10.0 36 3949
r 4.60212 0 10 tcp 1040 ------- 0 4.4 10.0 37 3951
r 4.602952 0 10 tcp 1040 ------- 0 4.4 10.0 38 3952
r 4.603784 0 10 tcp 1040 ------- 0 4.4 10.0 39 3954
r 4.604616 0 10 tcp 1040 ------- 0 4.4 10.0 40 3956
r 4.605448 0 10 tcp 1040 ------- 0 4.4 10.0 41 3960
r 4.60628 0 10 tcp 1040 ------- 0 4.4 10.0 42 3962
r 4.607112 0 10 tcp 1040 ------- 0 4.4 10.0 43 3964
r 4.607944 0 10 tcp 1040 ------- 0 4.4 10.0 44 3966
r 4.608776 0 10 tcp 1040 ------- 0 4.4 10.0 45 3968
r 4.609608 0 10 tcp 1040 ------- 0 4.4 10.0 46 3970
r 4.61044 0 10 tcp 1040 ------- 0 4.4 10.0 47 3972
r 4.611272 0 10 tcp 1040 ------- 0 4.4 10.0 48 3974
r 4.612104 0 10 tcp 1040 ------- 0 4.4 10.0 49 3976
r 4.612936 0 10 tcp 1040 ------- 0 4.4 10.0 50 3978
r 4.630408 0 10 tcp 1040 ------- 0 4.4 10.0 51 4020
r 4.63124 0 10 tcp 1040 ------- 0 4.4 10.0 52 4022
r 4.632072 0 10 tcp 1040 ------- 0 4.4 10.0 53 4024
r 4.632904 0 10 tcp 1040 ------- 0 4.4 10.0 54 4028
r 4.633736 0 10 tcp 1040 ------- 0 4.4 10.0 55 4030
r 4.634568 0 10 tcp 1040 ------- 0 4.4 10.0 56 4032
r 4.6354 0 10 tcp 1040 ------- 0 4.4 10.0 57 4034
r 4.636232 0 10 tcp 1040 ------- 0 4.4 10.0 58 4036
r 4.637064 0 10 tcp 1040 ------- 0 4.4 10.0 59 4038
r 4.637896 0 10 tcp 1040 ------- 0 4.4 10.0 60 4040
r 4.638728 0 10 tcp 1040 ------- 0 4.4 10.0 61 4042
r 4.63956 0 10 tcp 1040 ------- 0 4.4 10.0 62 4044
r 4.640392 0 10 tcp 1040 ------- 0 4.4 10.0 63 4046
r 4.641224 0 10 tcp 1040 ------- 0 4.4 10.0 64 4048
r 4.642056 0 10 tcp 1040 ------- 0 4.4 10.0 65 4050
r 4.642888 0 10 tcp 1040 ------- 0 4.4 10.0 66 4052
r 4.64372 0 10 tcp 1040 ------- 0 4.4 10.0 67 4054
r 4.644552 0 10 tcp 1040 ------- 0 4.4 10.0 68 4057
r 4.645384 0 10 tcp 1040 ------- 0 4.4 10.0 69 4058
r 4.646216 0 10 tcp 1040 ------- 0 4.4 10.0 70 4060
r 4.663688 0 10 tcp 1040 ------- 0 4.4 10.0 71 4104
r 4.66452 0 10 tcp 1040 ------- 0 4.4 10.0 72 4106
r 4.665352 0 10 tcp 1040 ------- 0 4.4 10.0 73 4108
r 4.666184 0 10 tcp 1040 ------- 0 4.4 10.0 74 4110
r 4.667016 0 10 tcp 1040 ------- 0 4.4 10.0 75 4112
r 4.667848 0 10 tcp 1040 ------- 0 4.4 10.0 76 4114
r 4.66868 0 10 tcp 1040 ------- 0 4.4 10.0 77 4116
r 4.669512 0 10 tcp 1040 ------- 0 4.4 10.0 78 4118
r 4.670344 0 10 tcp 1040 ------- 0 4.4 10.0 79 4120
r 4.671176 0 10 tcp 1040 ------- 0 4.4 10.0 80 4123
r 4.672008 0 10 tcp 1040 ------- 0 4.4 10.0 81 4124
r 4.67284 0 10 tcp 1040 ------- 0 4.4 10.0 82 4126
r 4.673672 0 10 tcp 1040 ------- 0 4.4 10.0 83 4128
r 4.674504 0 10 tcp 1040 ------- 0 4.4 10.0 84 4130
r 4.675336 0 10 tcp 1040 ------- 0 4.4 10.0 85 4132
r 4.676168 0 10 tcp 1040 ------- 0 4.4 10.0 86 4134
r 4.677 0 10 tcp 1040 ------- 0 4.4 10.0 87 4136
r 4.677832 0 10 tcp 1040 ------- 0 4.4 10.0 88 4138
r 4.678664 0 10 tcp 1040 ------- 0 4.4 10.0 89 4140
r 4.679496 0 10 tcp 1040 ------- 0 4.4 10.0 90 4142
r 4.696968 0 10 tcp 1040 ------- 0 4.4 10.0 91 4186
r 4.6978 0 10 tcp 1040 ------- 0 4.4 10.0 92 4189
r 4.698632 0 10 tcp 1040 ------- 0 4.4 10.0 93 4190
r 4.699464 0 10 tcp 1040 ------- 0 4.4 10.0 94 4192
r 4.700296 0 10 tcp 1040 ------- 0 4.4 10.0 95 4194
r 4.701128 0 10 tcp 1040 ------- 0 4.4 10.0 96 4196
r 4.70196 0 10 tcp 1040 ------- 0 4.4 10.0 97 4198
r 4.702792 0 10 tcp 1040 ------- 0 4.4 10.0 98 4200
r 4.703624 0 10 tcp 1040 ------- 0 4.4 10.0 99 4202
r 4.704456 0 10 tcp 1040 ------- 0 4.4 10.0 100 4204
r 4.705288 0 10 tcp 1040 ------- 0 4.4 10.0 101 4206
r 4.70612 0 10 tcp 1040 ------- 0 4.4 10.0 102 4208
r 4.706952 0 10 tcp 1040 ------- 0 4.4 10.0 103 4210
r 4.707784 0 10 tcp 1040 ------- 0 4.4 10.0 104 4212
r 4.708616 0 10 tcp 1040 ------- 0 4.4 10.0 105 4214
r 4.709448 0 10 tcp 1040 ------- 0 4.4 10.0 106 4216
r 4.71028 0 10 tcp 1040 ------- 0 4.4 10.0 107 4218
r 4.711112 0 10 tcp 1040 ------- 0 4.4 10.0 108 4220
r 4.711944 0 10 tcp 1040 ------- 0 4.4 10.0 109 4222
r 4.712776 0 10 tcp 1040 ------- 0 4.4 10.0 110 4226
r 4.730248 0 10 tcp 1040 ------- 0 4.4 10.0 111 4268
r 4.73108 0 10 tcp 1040 ------- 0 4.4 10.0 112 4270
r 4.731912 0 10 tcp 1040 ------- 0 4.4 10.0 113 4272
r 4.732744 0 10 tcp 1040 ------- 0 4.4 10.0 114 4274
r 4.733576 0 10 tcp 1040 ------- 0 4.4 10.0 115 4276
r 4.734408 0 10 tcp 1040 ------- 0 4.4 10.0 116 4278
r 4.73524 0 10 tcp 1040 ------- 0 4.4 10.0 117 4280
r 4.736072 0 10 tcp 1040 ------- 0 4.4 10.0 118 4282
r 4.736904 0 10 tcp 1040 ------- 0 4.4 10.0 119 4284
r 4.737736 0 10 tcp 1040 ------- 0 4.4 10.0 120 4286
r 4.738568 0 10 tcp 1040 ------- 0 4.4 10.0 121 4288
r 4.7394 0 10 tcp 1040 ------- 0 4.4 10.0 122 4292
r 4.740232 0 10 tcp 1040 ------- 0 4.4 10.0 123 4294
r 4.741064 0 10 tcp 1040 ------- 0 4.4 10.0 124 4296
r 4.741896 0 10 tcp 1040 ------- 0 4.4 10.0 125 4298
r 4.742728 0 10 tcp 1040 ------- 0 4.4 10.0 126 4300
r 4.74356 0 10 tcp 1040 ------- 0 4.4 10.0 127 4302
r 4.744392 0 10 tcp 1040 ------- 0 4.4 10.0 128 4304
r 4.745224 0 10 tcp 1040 ------- 0 4.4 10.0 129 4306
r 4.746056 0 10 tcp 1040 ------- 0 4.4 10.0 130 4308
r 4.763528 0 10 tcp 1040 ------- 0 4.4 10.0 131 4350
r 4.76436 0 10 tcp 1040 ------- 0 4.4 10.0 132 4352
r 4.765192 0 10 tcp 1040 ------- 0 4.4 10.0 133 4354
r 4.766024 0 10 tcp 1040 ------- 0 4.4 10.0 134 4358
r 4.766856 0 10 tcp 1040 ------- 0 4.4 10.0 135 4360
r 4.767688 0 10 tcp 1040 ------- 0 4.4 10.0 136 4362
r 4.76852 0 10 tcp 1040 ------- 0 4.4 10.0 137 4364
r 4.769352 0 10 tcp 1040 ------- 0 4.4 10.0 138 4366
r 4.770184 0 10 tcp 1040 ------- 0 4.4 10.0 139 4368
r 4.771016 0 10 tcp 1040 ------- 0 4.4 10.0 140 4370
r 4.771848 0 10 tcp 1040 ------- 0 4.4 10.0 141 4372
r 4.77268 0 10 tcp 1040 ------- 0 4.4 10.0 142 4374
r 4.773512 0 10 tcp 1040 ------- 0 4.4 10.0 143 4376
r 4.774344 0 10 tcp 1040 ------- 0 4.4 10.0 144 4378
r 4.775176 0 10 tcp 1040 ------- 0 4.4 10.0 145 4380
r 4.776008 0 10 tcp 1040 ------- 0 4.4 10.0 146 4382
r 4.77684 0 10 tcp 1040 ------- 0 4.4 10.0 147 4384
r 4.777672 0 10 tcp 1040 ------- 0 4.4 10.0 148 4386
r 4.778504 0 10 tcp 1040 ------- 0 4.4 10.0 149 4389
r 4.779336 0 10 tcp 1040 ------- 0 4.4 10.0 150 4390
r 4.796808 0 10 tcp 1040 ------- 0 4.4 10.0 151 4434
r 4.79764 0 10 tcp 1040 ------- 0 4.4 10.0 152 4436
r 4.798472 0 10 tcp 1040 ------- 0 4.4 10.0 153 4438
r 4.799304 0 10 tcp 1040 ------- 0 4.4 10.0 154 4440
r 4.800136 0 10 tcp 1040 ------- 0 4.4 10.0 155 4442
r 4.800968 0 10 tcp 1040 ------- 0 4.4 10.0 156 4444
r 4.8018 0 10 tcp 1040 ------- 0 4.4 10.0 157 4446
r 4.802632 0 10 tcp 1040 ------- 0 4.4 10.0 158 4448
r 4.803464 0 10 tcp 1040 ------- 0 4.4 10.0 159 4450
r 4.804296 0 10 tcp 1040 ------- 0 4.4 10.0 160 4452
r 4.805128 0 10 tcp 1040 ------- 0 4.4 10.0 161 4455
r 4.80596 0 10 tcp 1040 ------- 0 4.4 10.0 162 4456
r 4.806792 0 10 tcp 1040 ------- 0 4.4 10.0 163 4458
r 4.807624 0 10 tcp 1040 ------- 0 4.4 10.0 164 4460
r 4.808456 0 10 tcp 1040 ------- 0 4.4 10.0 165 4462
r 4.809288 0 10 tcp 1040 ------- 0 4.4 10.0 166 4464
r 4.81012 0 10 tcp 1040 ------- 0 4.4 10.0 167 4466
r 4.810952 0 10 tcp 1040 ------- 0 4.4 10.0 168 4468
r 4.811784 0 10 tcp 1040 ------- 0 4.4 10.0 169 4470
r 4.812616 0 10 tcp 1040 ------- 0 4.4 10.0 170 4472
r 4.830088 0 10 tcp 1040 ------- 0 4.4 10.0 171 4516
r 4.83092 0 10 tcp 1040 ------- 0 4.4 10.0 172 4518
r 4.831752 0 10 tcp 1040 ------- 0 4.4 10.0 173 4521
r 4.832584 0 10 tcp 1040 ------- 0 4.4 10.0 174 4522
r 4.833416 0 10 tcp 1040 ------- 0 4.4 10.0 175 4524
r 4.834248 0 10 tcp 1040 ------- 0 4.4 10.0 176 4526
r 4.83508 0 10 tcp 1040 ------- 0 4.4 10.0 177 4528
r 4.835912 0 10 tcp 1040 ------- 0 4.4 10.0 178 4530
r 4.836744 0 10 tcp 1040 ------- 0 4.4 10.0 179 4532
r 4.837576 0 10 tcp 1040 ------- 0 4.4 10.0 180 4534
r 4.838408 0 10 tcp 1040 ------- 0 4.4 10.0 181 4536
r 4.83924 0 10 tcp 1040 ------- 0 4.4 10.0 182 4538
r 4.840072 0 10 tcp 1040 ------- 0 4.4 10.0 183 4540
r 4.840904 0 10 tcp 1040 ------- 0 4.4 10.0 184 4542
r 4.841736 0 10 tcp 1040 ------- 0 4.4 10.0 185 4544
r 4.842568 0 10 tcp 1040 ------- 0 4.4 10.0 186 4546
r 4.8434 0 10 tcp 1040 ------- 0 4.4 10.0 187 4548
r 4.844232 0 10 tcp 1040 ------- 0 4.4 10.0 188 4550
r 4.845064 0 10 tcp 1040 ------- 0 4.4 10.0 189 4552
r 4.845896 0 10 tcp 1040 ------- 0 4.4 10.0 190 4554
r 4.863368 0 10 tcp 1040 ------- 0 4.4 10.0 191 4598
r 4.8642 0 10 tcp 1040 ------- 0 4.4 10.0 192 4600
r 4.865032 0 10 tcp 1040 ------- 0 4.4 10.0 193 4602
r 4.865864 0 10 tcp 1040 ------- 0 4.4 10.0 194 4604
r 4.866696 0 10 tcp 1040 ------- 0 4.4 10.0 195 4606
r 4.867528 0 10 tcp 1040 ------- 0 4.4 10.0 196 4608
r 4.86836 0 10 tcp 1040 ------- 0 4.4 10.0 197 4610
r 4.869192 0 10 tcp 1040 ------- 0 4.4 10.0 198 4612
r 4.870024 0 10 tcp 1040 ------- 0 4.4 10.0 199 4614
r 4.870856 0 10 tcp 1040 ------- 0 4.4 10.0 200 4616
r 4.871688 0 10 tcp 1040 ------- 0 4.4 10.0 201 4618
r 4.87252 0 10 tcp 1040 ------- 0 4.4 10.0 202 4620
r 4.873352 0 10 tcp 1040 ------- 0 4.4 10.0 203 4624
r 4.874184 0 10 tcp 1040 ------- 0 4.4 10.0 204 4626
r 4.875016 0 10 tcp 1040 ------- 0 4.4 10.0 205 4628
r 4.875848 0 10 tcp 1040 ------- 0 4.4 10.0 206 4630
r 4.87668 0 10 tcp 1040 ------- 0 4.4 10.0 207 4632
r 4.877512 0 10 tcp 1040 ------- 0 4.4 10.0 208 4634
r 4.878344 0 10 tcp 1040 ------- 0 4.4 10.0 209 4636
r 4.879176 0 10 tcp 1040 ------- 0 4.4 10.0 210 4638
r 4.896648 0 10 tcp 1040 ------- 0 4.4 10.0 211 4680
r 4.89748 0 10 tcp 1040 ------- 0 4.4 10.0 212 4682
r 4.898312 0 10 tcp 1040 ------- 0 4.4 10.0 213 4684
r 4.899144 0 10 tcp 1040 ------- 0 4.4 10.0 214 4686
r 4.899976 0 10 tcp 1040 ------- 0 4.4 10.0 215 4690
r 4.900808 0 10 tcp 1040 ------- 0 4.4 10.0 216 4692
r 4.90164 0 10 tcp 1040 ------- 0 4.4 10.0 217 4694
r 4.902472 0 10 tcp 1040 ------- 0 4.4 10.0 218 4696
r 4.903304 0 10 tcp 1040 ------- 0 4.4 10.0 219 4698
r 4.904136 0 10 tcp 1040 ------- 0 4.4 10.0 220 4700
r 4.904968 0 10 tcp 1040 ------- 0 4.4 10.0 221 4702
r 4.9058 0 10 tcp 1040 ------- 0 4.4 10.0 222 4704
r 4.906632 0 10 tcp 1040 ------- 0 4.4 10.0 223 4706
r 4.907464 0 10 tcp 1040 ------- 0 4.4 10.0 224 4708
r 4.908296 0 10 tcp 1040 ------- 0 4.4 10.0 225 4710
r 4.909128 0 10 tcp 1040 ------- 0 4.4 10.0 226 4712
r 4.90996 0 10 tcp 1040 ------- 0 4.4 10.0 227 4714
r 4.910792 0 10 tcp 1040 ------- 0 4.4 10.0 228 4716
r 4.911624 0 10 tcp 1040 ------- 0 4.4 10.0 229 4718
r 4.912456 0 10 tcp 1040 ------- 0 4.4 10.0 230 4721
r 4.929928 0 10 tcp 1040 ------- 0 4.4 10.0 231 4764
r 4.93076 0 10 tcp 1040 ------- 0 4.4 10.0 232 4766
r 4.931592 0 10 tcp 1040 ------- 0 4.4 10.0 233 4768
r 4.932424 0 10 tcp 1040 ------- 0 4.4 10.0 234 4770
r 4.933256 0 10 tcp 1040 ------- 0 4.4 10.0 235 4772
r 4.934088 0 10 tcp 1040 ------- 0 4.4 10.0 236 4774
r 4.93492 0 10 tcp 1040 ------- 0 4.4 10.0 237 4776
r 4.935752 0 10 tcp 1040 ------- 0 4.4 10.0 238 4778
r 4.936584 0 10 tcp 1040 ------- 0 4.4 10.0 239 4780
r 4.937416 0 10 tcp 1040 ------- 0 4.4 10.0 240 4782
r 4.938248 0 10 tcp 1040 ------- 0 4.4 10.0 241 4784
r 4.93908 0 10 tcp 1040 ------- 0 4.4 10.0 242 4787
r 4.939912 0 10 tcp 1040 ------- 0 4.4 10.0 243 4788
r 4.940744 0 10 tcp 1040 ------- 0 4.4 10.0 244 4790
r 4.941576 0 10 tcp 1040 ------- 0 4.4 10.0 245 4792
r 4.942408 0 10 tcp 1040 ------- 0 4.4 10.0 246 4794
r 4.94324 0 10 tcp 1040 ------- 0 4.4 10.0 247 4796
r 4.944072 0 10 tcp 1040 ------- 0 4.4 10.0 248 4798
r 4.944904 0 10 tcp 1040 ------- 0 4.4 10.0 249 4800
r 4.945736 0 10 tcp 1040 ------- 0 4.4 10.0 250 4802
