r 1.300222 0 15 tcp 40 ------- 0 4.9 15.0 0 782
r 1.324351 0 15 tcp 1040 ------- 0 4.9 15.0 1 784
r 1.325183 0 15 tcp 1040 ------- 0 4.9 15.0 2 785
r 1.34848 0 15 tcp 1040 ------- 0 4.9 15.0 3 788
r 1.349312 0 15 tcp 1040 ------- 0 4.9 15.0 4 789
r 1.350144 0 15 tcp 1040 ------- 0 4.9 15.0 5 790
r 1.350976 0 15 tcp 1040 ------- 0 4.9 15.0 6 791
r 1.372609 0 15 tcp 1040 ------- 0 4.9 15.0 7 796
r 1.373441 0 15 tcp 1040 ------- 0 4.9 15.0 8 797
r 1.374273 0 15 tcp 1040 ------- 0 4.9 15.0 9 798
r 1.375105 0 15 tcp 1040 ------- 0 4.9 15.0 10 799
r 1.375937 0 15 tcp 1040 ------- 0 4.9 15.0 11 800
r 1.376769 0 15 tcp 1040 ------- 0 4.9 15.0 12 801
r 1.377601 0 15 tcp 1040 ------- 0 4.9 15.0 13 802
r 1.378433 0 15 tcp 1040 ------- 0 4.9 15.0 14 803
r 1.396738 0 15 tcp 1040 ------- 0 4.9 15.0 15 812
r 1.39757 0 15 tcp 1040 ------- 0 4.9 15.0 16 813
r 1.398402 0 15 tcp 1040 ------- 0 4.9 15.0 17 814
r 1.399234 0 15 tcp 1040 ------- 0 4.9 15.0 18 815
r 1.400066 0 15 tcp 1040 ------- 0 4.9 15.0 19 816
r 1.400898 0 15 tcp 1040 ------- 0 4.9 15.0 20 817
r 1.40173 0 15 tcp 1040 ------- 0 4.9 15.0 21 818
r 1.402562 0 15 tcp 1040 ------- 0 4.9 15.0 22 819
r 1.403394 0 15 tcp 1040 ------- 0 4.9 15.0 23 820
r 1.404226 0 15 tcp 1040 ------- 0 4.9 15.0 24 821
r 1.405058 0 15 tcp 1040 ------- 0 4.9 15.0 25 822
r 1.40589 0 15 tcp 1040 ------- 0 4.9 15.0 26 823
r 1.406722 0 15 tcp 1040 ------- 0 4.9 15.0 27 824
r 1.407554 0 15 tcp 1040 ------- 0 4.9 15.0 28 825
r 1.408386 0 15 tcp 1040 ------- 0 4.9 15.0 29 826
r 1.409218 0 15 tcp 1040 ------- 0 4.9 15.0 30 827
r 1.420866 0 15 tcp 1040 ------- 0 4.9 15.0 31 842
r 1.421698 0 15 tcp 1040 ------- 0 4.9 15.0 32 843
r 1.42253 0 15 tcp 1040 ------- 0 4.9 15.0 33 845
r 1.423362 0 15 tcp 1040 ------- 0 4.9 15.0 34 846
r 1.424194 0 15 tcp 1040 ------- 0 4.9 15.0 35 848
r 1.425026 0 15 tcp 1040 ------- 0 4.9 15.0 36 849
r 1.425858 0 15 tcp 1040 ------- 0 4.9 15.0 37 850
r 1.42669 0 15 tcp 1040 ------- 0 4.9 15.0 38 851
r 1.427522 0 15 tcp 1040 ------- 0 4.9 15.0 39 852
r 1.428354 0 15 tcp 1040 ------- 0 4.9 15.0 40 853
r 1.429186 0 15 tcp 1040 ------- 0 4.9 15.0 41 854
r 1.430018 0 15 tcp 1040 ------- 0 4.9 15.0 42 855
r 1.43085 0 15 tcp 1040 ------- 0 4.9 15.0 43 856
r 1.431682 0 15 tcp 1040 ------- 0 4.9 15.0 44 857
r 1.432514 0 15 tcp 1040 ------- 0 4.9 15.0 45 858
r 1.433346 0 15 tcp 1040 ------- 0 4.9 15.0 46 859
r 1.434178 0 15 tcp 1040 ------- 0 4.9 15.0 47 860
r 1.43501 0 15 tcp 1040 ------- 0 4.9 15.0 48 861
r 1.435842 0 15 tcp 1040 ------- 0 4.9 15.0 49 862
r 1.436674 0 15 tcp 1040 ------- 0 4.9 15.0 50 863
r 1.444995 0 15 tcp 1040 ------- 0 4.9 15.0 51 878
r 1.445827 0 15 tcp 1040 ------- 0 4.9 15.0 52 880
r 1.446659 0 15 tcp 1040 ------- 0 4.9 15.0 53 882
r 1.447491 0 15 tcp 1040 ------- 0 4.9 15.0 54 884
r 1.448323 0 15 tcp 1040 ------- 0 4.9 15.0 55 886
r 1.449155 0 15 tcp 1040 ------- 0 4.9 15.0 56 888
r 1.449987 0 15 tcp 1040 ------- 0 4.9 15.0 57 890
r 1.450819 0 15 tcp 1040 ------- 0 4.9 15.0 58 891
r 1.451651 0 15 tcp 1040 ------- 0 4.9 15.0 59 892
r 1.452483 0 15 tcp 1040 ------- 0 4.9 15.0 60 893
r 1.453315 0 15 tcp 1040 ------- 0 4.9 15.0 61 894
r 1.454147 0 15 tcp 1040 ------- 0 4.9 15.0 62 895
r 1.454979 0 15 tcp 1040 ------- 0 4.9 15.0 63 896
r 1.455811 0 15 tcp 1040 ------- 0 4.9 15.0 64 897
r 1.456643 0 15 tcp 1040 ------- 0 4.9 15.0 65 898
r 1.457475 0 15 tcp 1040 ------- 0 4.9 15.0 66 899
r 1.458307 0 15 tcp 1040 ------- 0 4.9 15.0 67 901
r 1.459139 0 15 tcp 1040 ------- 0 4.9 15.0 68 903
r 1.459971 0 15 tcp 1040 ------- 0 4.9 15.0 69 905
r 1.460803 0 15 tcp 1040 ------- 0 4.9 15.0 70 907
r 1.469124 0 15 tcp 1040 ------- 0 4.9 15.0 71 918
r 1.469956 0 15 tcp 1040 ------- 0 4.9 15.0 72 920
r 1.470788 0 15 tcp 1040 ------- 0 4.9 15.0 73 922
r 1.47162 0 15 tcp 1040 ------- 0 4.9 15.0 74 924
r 1.472452 0 15 tcp 1040 ------- 0 4.9 15.0 75 926
r 1.473284 0 15 tcp 1040 ------- 0 4.9 15.0 76 928
r 1.474116 0 15 tcp 1040 ------- 0 4.9 15.0 77 930
r 1.474948 0 15 tcp 1040 ------- 0 4.9 15.0 78 931
r 1.47578 0 15 tcp 1040 ------- 0 4.9 15.0 79 932
r 1.476612 0 15 tcp 1040 ------- 0 4.9 15.0 80 933
r 1.477444 0 15 tcp 1040 ------- 0 4.9 15.0 81 934
r 1.478276 0 15 tcp 1040 ------- 0 4.9 15.0 82 935
r 1.479108 0 15 tcp 1040 ------- 0 4.9 15.0 83 936
r 1.47994 0 15 tcp 1040 ------- 0 4.9 15.0 84 937
r 1.480772 0 15 tcp 1040 ------- 0 4.9 15.0 85 938
r 1.481604 0 15 tcp 1040 ------- 0 4.9 15.0 86 939
r 1.482436 0 15 tcp 1040 ------- 0 4.9 15.0 87 941
r 1.483268 0 15 tcp 1040 ------- 0 4.9 15.0 88 943
r 1.4841 0 15 tcp 1040 ------- 0 4.9 15.0 89 945
r 1.484932 0 15 tcp 1040 ------- 0 4.9 15.0 90 947
r 1.493253 0 15 tcp 1040 ------- 0 4.9 15.0 91 958
r 1.494085 0 15 tcp 1040 ------- 0 4.9 15.0 92 960
r 1.494917 0 15 tcp 1040 ------- 0 4.9 15.0 93 962
r 1.495749 0 15 tcp 1040 ------- 0 4.9 15.0 94 964
r 1.496581 0 15 tcp 1040 ------- 0 4.9 15.0 95 966
r 1.497413 0 15 tcp 1040 ------- 0 4.9 15.0 96 968
r 1.498245 0 15 tcp 1040 ------- 0 4.9 15.0 97 970
r 1.499077 0 15 tcp 1040 ------- 0 4.9 15.0 98 971
r 1.499909 0 15 tcp 1040 ------- 0 4.9 15.0 99 972
r 1.500741 0 15 tcp 1040 ------- 0 4.9 15.0 100 973
r 1.501573 0 15 tcp 1040 ------- 0 4.9 15.0 101 974
r 1.502405 0 15 tcp 1040 ------- 0 4.9 15.0 102 975
r 1.503237 0 15 tcp 1040 ------- 0 4.9 15.0 103 976
r 1.504069 0 15 tcp 1040 ------- 0 4.9 15.0 104 977
r 1.504901 0 15 tcp 1040 ------- 0 4.9 15.0 105 978
r 1.505733 0 15 tcp 1040 ------- 0 4.9 15.0 106 979
r 1.506565 0 15 tcp 1040 ------- 0 4.9 15.0 107 981
r 1.507397 0 15 tcp 1040 ------- 0 4.9 15.0 108 983
r 1.508229 0 15 tcp 1040 ------- 0 4.9 15.0 109 985
r 1.509061 0 15 tcp 1040 ------- 0 4.9 15.0 110 987
r 1.517382 0 15 tcp 1040 ------- 0 4.9 15.0 111 998
r 1.518214 0 15 tcp 1040 ------- 0 4.9 15.0 112 1000
r 1.519046 0 15 tcp 1040 ------- 0 4.9 15.0 113 1002
r 1.519878 0 15 tcp 1040 ------- 0 4.9 15.0 114 1004
r 1.52071 0 15 tcp 1040 ------- 0 4.9 15.0 115 1006
r 1.521542 0 15 tcp 1040 ------- 0 4.9 15.0 116 1008
r 1.522374 0 15 tcp 1040 ------- 0 4.9 15.0 117 1010
r 1.523206 0 15 tcp 1040 ------- 0 4.9 15.0 118 1011
r 1.524038 0 15 tcp 1040 ------- 0 4.9 15.0 119 1012
r 1.52487 0 15 tcp 1040 ------- 0 4.9 15.0 120 1013
r 1.525702 0 15 tcp 1040 ------- 0 4.9 15.0 121 1014
r 1.526534 0 15 tcp 1040 ------- 0 4.9 15.0 122 1015
r 1.527366 0 15 tcp 1040 ------- 0 4.9 15.0 123 1016
r 1.528198 0 15 tcp 1040 ------- 0 4.9 15.0 124 1017
r 1.52903 0 15 tcp 1040 ------- 0 4.9 15.0 125 1018
r 1.529862 0 15 tcp 1040 ------- 0 4.9 15.0 126 1019
r 1.530694 0 15 tcp 1040 ------- 0 4.9 15.0 127 1021
r 1.531526 0 15 tcp 1040 ------- 0 4.9 15.0 128 1023
r 1.532358 0 15 tcp 1040 ------- 0 4.9 15.0 129 1025
r 1.53319 0 15 tcp 1040 ------- 0 4.9 15.0 130 1027
r 1.54151 0 15 tcp 1040 ------- 0 4.9 15.0 131 1038
r 1.542342 0 15 tcp 1040 ------- 0 4.9 15.0 132 1040
r 1.543174 0 15 tcp 1040 ------- 0 4.9 15.0 133 1042
r 1.544006 0 15 tcp 1040 ------- 0 4.9 15.0 134 1044
r 1.544838 0 15 tcp 1040 ------- 0 4.9 15.0 135 1046
r 1.54567 0 15 tcp 1040 ------- 0 4.9 15.0 136 1048
r 1.546502 0 15 tcp 1040 ------- 0 4.9 15.0 137 1050
r 1.547334 0 15 tcp 1040 ------- 0 4.9 15.0 138 1051
r 1.548166 0 15 tcp 1040 ------- 0 4.9 15.0 139 1052
r 1.548998 0 15 tcp 1040 ------- 0 4.9 15.0 140 1053
r 1.54983 0 15 tcp 1040 ------- 0 4.9 15.0 141 1054
r 1.550662 0 15 tcp 1040 ------- 0 4.9 15.0 142 1055
r 1.551494 0 15 tcp 1040 ------- 0 4.9 15.0 143 1056
r 1.552326 0 15 tcp 1040 ------- 0 4.9 15.0 144 1057
r 1.553158 0 15 tcp 1040 ------- 0 4.9 15.0 145 1058
r 1.55399 0 15 tcp 1040 ------- 0 4.9 15.0 146 1059
r 1.554822 0 15 tcp 1040 ------- 0 4.9 15.0 147 1061
r 1.555654 0 15 tcp 1040 ------- 0 4.9 15.0 148 1063
r 1.556486 0 15 tcp 1040 ------- 0 4.9 15.0 149 1065
r 1.557318 0 15 tcp 1040 ------- 0 4.9 15.0 150 1067
r 1.565639 0 15 tcp 1040 ------- 0 4.9 15.0 151 1078
r 1.566471 0 15 tcp 1040 ------- 0 4.9 15.0 152 1080
r 1.567303 0 15 tcp 1040 ------- 0 4.9 15.0 153 1082
r 1.568135 0 15 tcp 1040 ------- 0 4.9 15.0 154 1084
r 1.568967 0 15 tcp 1040 ------- 0 4.9 15.0 155 1086
r 1.569799 0 15 tcp 1040 ------- 0 4.9 15.0 156 1088
r 1.570631 0 15 tcp 1040 ------- 0 4.9 15.0 157 1090
r 1.571463 0 15 tcp 1040 ------- 0 4.9 15.0 158 1091
r 1.572295 0 15 tcp 1040 ------- 0 4.9 15.0 159 1092
r 1.573127 0 15 tcp 1040 ------- 0 4.9 15.0 160 1093
r 1.573959 0 15 tcp 1040 ------- 0 4.9 15.0 161 1094
r 1.574791 0 15 tcp 1040 ------- 0 4.9 15.0 162 1095
r 1.575623 0 15 tcp 1040 ------- 0 4.9 15.0 163 1096
r 1.576455 0 15 tcp 1040 ------- 0 4.9 15.0 164 1097
r 1.577287 0 15 tcp 1040 ------- 0 4.9 15.0 165 1098
r 1.578119 0 15 tcp 1040 ------- 0 4.9 15.0 166 1099
r 1.578951 0 15 tcp 1040 ------- 0 4.9 15.0 167 1101
r 1.579783 0 15 tcp 1040 ------- 0 4.9 15.0 168 1103
r 1.580615 0 15 tcp 1040 ------- 0 4.9 15.0 169 1105
r 1.581447 0 15 tcp 1040 ------- 0 4.9 15.0 170 1107
r 1.589768 0 15 tcp 1040 ------- 0 4.9 15.0 171 1118
r 1.5906 0 15 tcp 1040 ------- 0 4.9 15.0 172 1120
r 1.591432 0 15 tcp 1040 ------- 0 4.9 15.0 173 1122
r 1.592264 0 15 tcp 1040 ------- 0 4.9 15.0 174 1124
r 1.593096 0 15 tcp 1040 ------- 0 4.9 15.0 175 1126
r 1.593928 0 15 tcp 1040 ------- 0 4.9 15.0 176 1128
r 1.59476 0 15 tcp 1040 ------- 0 4.9 15.0 177 1130
r 1.595592 0 15 tcp 1040 ------- 0 4.9 15.0 178 1131
r 1.596424 0 15 tcp 1040 ------- 0 4.9 15.0 179 1132
r 1.597256 0 15 tcp 1040 ------- 0 4.9 15.0 180 1133
r 1.598088 0 15 tcp 1040 ------- 0 4.9 15.0 181 1134
r 1.59892 0 15 tcp 1040 ------- 0 4.9 15.0 182 1135
r 1.599752 0 15 tcp 1040 ------- 0 4.9 15.0 183 1136
r 1.600584 0 15 tcp 1040 ------- 0 4.9 15.0 184 1137
r 1.601416 0 15 tcp 1040 ------- 0 4.9 15.0 185 1138
r 1.602248 0 15 tcp 1040 ------- 0 4.9 15.0 186 1139
r 1.60308 0 15 tcp 1040 ------- 0 4.9 15.0 187 1141
r 1.603912 0 15 tcp 1040 ------- 0 4.9 15.0 188 1143
r 1.604744 0 15 tcp 1040 ------- 0 4.9 15.0 189 1145
r 1.605576 0 15 tcp 1040 ------- 0 4.9 15.0 190 1147
r 1.613897 0 15 tcp 1040 ------- 0 4.9 15.0 191 1158
r 1.614729 0 15 tcp 1040 ------- 0 4.9 15.0 192 1160
r 1.615561 0 15 tcp 1040 ------- 0 4.9 15.0 193 1162
r 1.616393 0 15 tcp 1040 ------- 0 4.9 15.0 194 1164
r 1.617225 0 15 tcp 1040 ------- 0 4.9 15.0 195 1166
r 1.618057 0 15 tcp 1040 ------- 0 4.9 15.0 196 1168
r 1.618889 0 15 tcp 1040 ------- 0 4.9 15.0 197 1170
r 1.619721 0 15 tcp 1040 ------- 0 4.9 15.0 198 1171
r 1.620553 0 15 tcp 1040 ------- 0 4.9 15.0 199 1172
r 1.621385 0 15 tcp 1040 ------- 0 4.9 15.0 200 1173
r 1.622217 0 15 tcp 1040 ------- 0 4.9 15.0 201 1174
r 1.623049 0 15 tcp 1040 ------- 0 4.9 15.0 202 1175
r 1.623881 0 15 tcp 1040 ------- 0 4.9 15.0 203 1176
r 1.624713 0 15 tcp 1040 ------- 0 4.9 15.0 204 1177
r 1.625545 0 15 tcp 1040 ------- 0 4.9 15.0 205 1178
r 1.626377 0 15 tcp 1040 ------- 0 4.9 15.0 206 1179
r 1.627209 0 15 tcp 1040 ------- 0 4.9 15.0 207 1181
r 1.628041 0 15 tcp 1040 ------- 0 4.9 15.0 208 1183
r 1.628873 0 15 tcp 1040 ------- 0 4.9 15.0 209 1185
r 1.629705 0 15 tcp 1040 ------- 0 4.9 15.0 210 1187
r 1.638026 0 15 tcp 1040 ------- 0 4.9 15.0 211 1198
r 1.638858 0 15 tcp 1040 ------- 0 4.9 15.0 212 1200
r 1.63969 0 15 tcp 1040 ------- 0 4.9 15.0 213 1202
r 1.640522 0 15 tcp 1040 ------- 0 4.9 15.0 214 1204
r 1.641354 0 15 tcp 1040 ------- 0 4.9 15.0 215 1206
r 1.642186 0 15 tcp 1040 ------- 0 4.9 15.0 216 1208
r 1.643018 0 15 tcp 1040 ------- 0 4.9 15.0 217 1210
r 1.64385 0 15 tcp 1040 ------- 0 4.9 15.0 218 1211
r 1.644682 0 15 tcp 1040 ------- 0 4.9 15.0 219 1212
r 1.645514 0 15 tcp 1040 ------- 0 4.9 15.0 220 1213
r 1.646346 0 15 tcp 1040 ------- 0 4.9 15.0 221 1214
r 1.647178 0 15 tcp 1040 ------- 0 4.9 15.0 222 1215
r 1.64801 0 15 tcp 1040 ------- 0 4.9 15.0 223 1216
r 1.648842 0 15 tcp 1040 ------- 0 4.9 15.0 224 1217
r 1.649674 0 15 tcp 1040 ------- 0 4.9 15.0 225 1218
r 1.650506 0 15 tcp 1040 ------- 0 4.9 15.0 226 1219
r 1.651338 0 15 tcp 1040 ------- 0 4.9 15.0 227 1221
r 1.65217 0 15 tcp 1040 ------- 0 4.9 15.0 228 1223
r 1.653002 0 15 tcp 1040 ------- 0 4.9 15.0 229 1225
r 1.653834 0 15 tcp 1040 ------- 0 4.9 15.0 230 1227
r 1.662154 0 15 tcp 1040 ------- 0 4.9 15.0 231 1238
r 1.662986 0 15 tcp 1040 ------- 0 4.9 15.0 232 1240
r 1.663818 0 15 tcp 1040 ------- 0 4.9 15.0 233 1242
r 1.66465 0 15 tcp 1040 ------- 0 4.9 15.0 234 1244
r 1.665482 0 15 tcp 1040 ------- 0 4.9 15.0 235 1246
r 1.666314 0 15 tcp 1040 ------- 0 4.9 15.0 236 1248
r 1.667146 0 15 tcp 1040 ------- 0 4.9 15.0 237 1250
r 1.667978 0 15 tcp 1040 ------- 0 4.9 15.0 238 1251
r 1.66881 0 15 tcp 1040 ------- 0 4.9 15.0 239 1252
r 1.669642 0 15 tcp 1040 ------- 0 4.9 15.0 240 1253
r 1.670474 0 15 tcp 1040 ------- 0 4.9 15.0 241 1254
r 1.671306 0 15 tcp 1040 ------- 0 4.9 15.0 242 1255
r 1.672138 0 15 tcp 1040 ------- 0 4.9 15.0 243 1256
r 1.67297 0 15 tcp 1040 ------- 0 4.9 15.0 244 1257
r 1.673802 0 15 tcp 1040 ------- 0 4.9 15.0 245 1258
r 1.674634 0 15 tcp 1040 ------- 0 4.9 15.0 246 1259
r 1.675466 0 15 tcp 1040 ------- 0 4.9 15.0 247 1261
r 1.676298 0 15 tcp 1040 ------- 0 4.9 15.0 248 1263
r 1.67713 0 15 tcp 1040 ------- 0 4.9 15.0 249 1265
r 1.677962 0 15 tcp 1040 ------- 0 4.9 15.0 250 1267
r 1.686283 0 15 tcp 1040 ------- 0 4.9 15.0 251 1278
r 1.687115 0 15 tcp 1040 ------- 0 4.9 15.0 252 1280
r 1.687947 0 15 tcp 1040 ------- 0 4.9 15.0 253 1282
r 1.688779 0 15 tcp 1040 ------- 0 4.9 15.0 254 1284
r 1.689611 0 15 tcp 1040 ------- 0 4.9 15.0 255 1286
r 1.690443 0 15 tcp 1040 ------- 0 4.9 15.0 256 1288
r 1.691275 0 15 tcp 1040 ------- 0 4.9 15.0 257 1290
r 1.692107 0 15 tcp 1040 ------- 0 4.9 15.0 258 1291
r 1.692939 0 15 tcp 1040 ------- 0 4.9 15.0 259 1292
r 1.693771 0 15 tcp 1040 ------- 0 4.9 15.0 260 1293
r 1.694603 0 15 tcp 1040 ------- 0 4.9 15.0 261 1294
r 1.695435 0 15 tcp 1040 ------- 0 4.9 15.0 262 1295
r 1.696267 0 15 tcp 1040 ------- 0 4.9 15.0 263 1296
r 1.697099 0 15 tcp 1040 ------- 0 4.9 15.0 264 1297
r 1.697931 0 15 tcp 1040 ------- 0 4.9 15.0 265 1298
r 1.698763 0 15 tcp 1040 ------- 0 4.9 15.0 266 1299
r 1.699595 0 15 tcp 1040 ------- 0 4.9 15.0 267 1301
r 1.700427 0 15 tcp 1040 ------- 0 4.9 15.0 268 1303
r 1.701259 0 15 tcp 1040 ------- 0 4.9 15.0 269 1305
r 1.702091 0 15 tcp 1040 ------- 0 4.9 15.0 270 1307
r 1.710412 0 15 tcp 1040 ------- 0 4.9 15.0 271 1318
r 1.711244 0 15 tcp 1040 ------- 0 4.9 15.0 272 1320
r 1.712076 0 15 tcp 1040 ------- 0 4.9 15.0 273 1322
r 1.712908 0 15 tcp 1040 ------- 0 4.9 15.0 274 1324
r 1.71374 0 15 tcp 1040 ------- 0 4.9 15.0 275 1326
r 1.714572 0 15 tcp 1040 ------- 0 4.9 15.0 276 1328
r 1.715404 0 15 tcp 1040 ------- 0 4.9 15.0 277 1330
r 1.716236 0 15 tcp 1040 ------- 0 4.9 15.0 278 1331
r 1.717068 0 15 tcp 1040 ------- 0 4.9 15.0 279 1332
r 1.7179 0 15 tcp 1040 ------- 0 4.9 15.0 280 1333
r 1.718732 0 15 tcp 1040 ------- 0 4.9 15.0 281 1334
r 1.719564 0 15 tcp 1040 ------- 0 4.9 15.0 282 1335
r 1.720396 0 15 tcp 1040 ------- 0 4.9 15.0 283 1336
r 1.721228 0 15 tcp 1040 ------- 0 4.9 15.0 284 1337
r 1.72206 0 15 tcp 1040 ------- 0 4.9 15.0 285 1338
r 1.722892 0 15 tcp 1040 ------- 0 4.9 15.0 286 1339
r 1.723724 0 15 tcp 1040 ------- 0 4.9 15.0 287 1341
r 1.724556 0 15 tcp 1040 ------- 0 4.9 15.0 288 1343
r 1.725388 0 15 tcp 1040 ------- 0 4.9 15.0 289 1345
r 1.72622 0 15 tcp 1040 ------- 0 4.9 15.0 290 1347
r 1.734541 0 15 tcp 1040 ------- 0 4.9 15.0 291 1358
r 1.735373 0 15 tcp 1040 ------- 0 4.9 15.0 292 1360
r 1.736205 0 15 tcp 1040 ------- 0 4.9 15.0 293 1362
r 1.737037 0 15 tcp 1040 ------- 0 4.9 15.0 294 1364
r 1.737869 0 15 tcp 1040 ------- 0 4.9 15.0 295 1366
r 1.738701 0 15 tcp 1040 ------- 0 4.9 15.0 296 1368
r 1.739533 0 15 tcp 1040 ------- 0 4.9 15.0 297 1370
r 1.740365 0 15 tcp 1040 ------- 0 4.9 15.0 298 1371
r 1.741197 0 15 tcp 1040 ------- 0 4.9 15.0 299 1372
r 1.742029 0 15 tcp 1040 ------- 0 4.9 15.0 300 1373
r 1.742861 0 15 tcp 1040 ------- 0 4.9 15.0 301 1374
r 1.743693 0 15 tcp 1040 ------- 0 4.9 15.0 302 1375
r 1.744525 0 15 tcp 1040 ------- 0 4.9 15.0 303 1376
r 1.745357 0 15 tcp 1040 ------- 0 4.9 15.0 304 1377
r 1.746189 0 15 tcp 1040 ------- 0 4.9 15.0 305 1378
r 1.747021 0 15 tcp 1040 ------- 0 4.9 15.0 306 1379
r 1.747853 0 15 tcp 1040 ------- 0 4.9 15.0 307 1381
r 1.748685 0 15 tcp 1040 ------- 0 4.9 15.0 308 1383
r 1.749517 0 15 tcp 1040 ------- 0 4.9 15.0 309 1385
r 1.750349 0 15 tcp 1040 ------- 0 4.9 15.0 310 1387
r 1.75867 0 15 tcp 1040 ------- 0 4.9 15.0 311 1398
r 1.759502 0 15 tcp 1040 ------- 0 4.9 15.0 312 1400
r 1.760334 0 15 tcp 1040 ------- 0 4.9 15.0 313 1402
r 1.761166 0 15 tcp 1040 ------- 0 4.9 15.0 314 1404
r 1.761998 0 15 tcp 1040 ------- 0 4.9 15.0 315 1406
r 1.76283 0 15 tcp 1040 ------- 0 4.9 15.0 316 1408
r 1.763662 0 15 tcp 1040 ------- 0 4.9 15.0 317 1410
r 1.764494 0 15 tcp 1040 ------- 0 4.9 15.0 318 1411
r 1.765326 0 15 tcp 1040 ------- 0 4.9 15.0 319 1412
r 1.766158 0 15 tcp 1040 ------- 0 4.9 15.0 320 1413
r 1.76699 0 15 tcp 1040 ------- 0 4.9 15.0 321 1414
r 1.767822 0 15 tcp 1040 ------- 0 4.9 15.0 322 1415
r 1.768654 0 15 tcp 1040 ------- 0 4.9 15.0 323 1416
r 1.769486 0 15 tcp 1040 ------- 0 4.9 15.0 324 1417
r 1.770318 0 15 tcp 1040 ------- 0 4.9 15.0 325 1418
r 1.77115 0 15 tcp 1040 ------- 0 4.9 15.0 326 1419
r 1.771982 0 15 tcp 1040 ------- 0 4.9 15.0 327 1421
r 1.772814 0 15 tcp 1040 ------- 0 4.9 15.0 328 1423
r 1.773646 0 15 tcp 1040 ------- 0 4.9 15.0 329 1425
r 1.774478 0 15 tcp 1040 ------- 0 4.9 15.0 330 1427
r 1.782798 0 15 tcp 1040 ------- 0 4.9 15.0 331 1438
r 1.78363 0 15 tcp 1040 ------- 0 4.9 15.0 332 1440
r 1.784462 0 15 tcp 1040 ------- 0 4.9 15.0 333 1442
r 1.785294 0 15 tcp 1040 ------- 0 4.9 15.0 334 1444
r 1.786126 0 15 tcp 1040 ------- 0 4.9 15.0 335 1446
r 1.786958 0 15 tcp 1040 ------- 0 4.9 15.0 336 1448
r 1.78779 0 15 tcp 1040 ------- 0 4.9 15.0 337 1450
r 1.788622 0 15 tcp 1040 ------- 0 4.9 15.0 338 1451
r 1.789454 0 15 tcp 1040 ------- 0 4.9 15.0 339 1452
r 1.790286 0 15 tcp 1040 ------- 0 4.9 15.0 340 1453
r 1.791118 0 15 tcp 1040 ------- 0 4.9 15.0 341 1454
r 1.79195 0 15 tcp 1040 ------- 0 4.9 15.0 342 1455
r 1.792782 0 15 tcp 1040 ------- 0 4.9 15.0 343 1456
r 1.793614 0 15 tcp 1040 ------- 0 4.9 15.0 344 1457
r 1.794446 0 15 tcp 1040 ------- 0 4.9 15.0 345 1458
r 1.795278 0 15 tcp 1040 ------- 0 4.9 15.0 346 1459
r 1.79611 0 15 tcp 1040 ------- 0 4.9 15.0 347 1461
r 1.796942 0 15 tcp 1040 ------- 0 4.9 15.0 348 1463
r 1.797774 0 15 tcp 1040 ------- 0 4.9 15.0 349 1465
r 1.798606 0 15 tcp 1040 ------- 0 4.9 15.0 350 1467
r 1.806927 0 15 tcp 1040 ------- 0 4.9 15.0 351 1478
r 1.807759 0 15 tcp 1040 ------- 0 4.9 15.0 352 1480
r 1.808591 0 15 tcp 1040 ------- 0 4.9 15.0 353 1482
r 1.809423 0 15 tcp 1040 ------- 0 4.9 15.0 354 1484
r 1.810255 0 15 tcp 1040 ------- 0 4.9 15.0 355 1486
r 1.811087 0 15 tcp 1040 ------- 0 4.9 15.0 356 1488
r 1.811919 0 15 tcp 1040 ------- 0 4.9 15.0 357 1490
r 1.812751 0 15 tcp 1040 ------- 0 4.9 15.0 358 1491
r 1.813583 0 15 tcp 1040 ------- 0 4.9 15.0 359 1492
r 1.814415 0 15 tcp 1040 ------- 0 4.9 15.0 360 1493
r 1.815247 0 15 tcp 1040 ------- 0 4.9 15.0 361 1494
r 1.816079 0 15 tcp 1040 ------- 0 4.9 15.0 362 1495
r 1.816911 0 15 tcp 1040 ------- 0 4.9 15.0 363 1496
r 1.817743 0 15 tcp 1040 ------- 0 4.9 15.0 364 1497
r 1.818575 0 15 tcp 1040 ------- 0 4.9 15.0 365 1498
r 1.819407 0 15 tcp 1040 ------- 0 4.9 15.0 366 1499
r 1.820239 0 15 tcp 1040 ------- 0 4.9 15.0 367 1501
r 1.821071 0 15 tcp 1040 ------- 0 4.9 15.0 368 1503
r 1.821903 0 15 tcp 1040 ------- 0 4.9 15.0 369 1505
r 1.822735 0 15 tcp 1040 ------- 0 4.9 15.0 370 1507
r 1.831056 0 15 tcp 1040 ------- 0 4.9 15.0 371 1518
r 1.831888 0 15 tcp 1040 ------- 0 4.9 15.0 372 1520
r 1.83272 0 15 tcp 1040 ------- 0 4.9 15.0 373 1522
r 1.833552 0 15 tcp 1040 ------- 0 4.9 15.0 374 1524
r 1.834384 0 15 tcp 1040 ------- 0 4.9 15.0 375 1526
r 1.835216 0 15 tcp 1040 ------- 0 4.9 15.0 376 1528
r 1.836048 0 15 tcp 1040 ------- 0 4.9 15.0 377 1530
r 1.83688 0 15 tcp 1040 ------- 0 4.9 15.0 378 1531
r 1.837712 0 15 tcp 1040 ------- 0 4.9 15.0 379 1532
r 1.838544 0 15 tcp 1040 ------- 0 4.9 15.0 380 1533
r 1.839376 0 15 tcp 1040 ------- 0 4.9 15.0 381 1534
r 1.840208 0 15 tcp 1040 ------- 0 4.9 15.0 382 1535
r 1.84104 0 15 tcp 1040 ------- 0 4.9 15.0 383 1536
r 1.841872 0 15 tcp 1040 ------- 0 4.9 15.0 384 1537
r 1.842704 0 15 tcp 1040 ------- 0 4.9 15.0 385 1538
r 1.843536 0 15 tcp 1040 ------- 0 4.9 15.0 386 1539
r 1.844368 0 15 tcp 1040 ------- 0 4.9 15.0 387 1541
r 1.8452 0 15 tcp 1040 ------- 0 4.9 15.0 388 1543
r 1.846032 0 15 tcp 1040 ------- 0 4.9 15.0 389 1545
r 1.846864 0 15 tcp 1040 ------- 0 4.9 15.0 390 1547
r 1.855185 0 15 tcp 1040 ------- 0 4.9 15.0 391 1558
r 1.856017 0 15 tcp 1040 ------- 0 4.9 15.0 392 1560
r 1.856849 0 15 tcp 1040 ------- 0 4.9 15.0 393 1562
r 1.857681 0 15 tcp 1040 ------- 0 4.9 15.0 394 1564
r 1.858513 0 15 tcp 1040 ------- 0 4.9 15.0 395 1566
r 1.859345 0 15 tcp 1040 ------- 0 4.9 15.0 396 1568
r 1.860177 0 15 tcp 1040 ------- 0 4.9 15.0 397 1570
r 1.861009 0 15 tcp 1040 ------- 0 4.9 15.0 398 1571
r 1.861841 0 15 tcp 1040 ------- 0 4.9 15.0 399 1572
r 1.862673 0 15 tcp 1040 ------- 0 4.9 15.0 400 1573
r 1.863505 0 15 tcp 1040 ------- 0 4.9 15.0 401 1574
r 1.864337 0 15 tcp 1040 ------- 0 4.9 15.0 402 1575
r 1.865169 0 15 tcp 1040 ------- 0 4.9 15.0 403 1576
r 1.866001 0 15 tcp 1040 ------- 0 4.9 15.0 404 1577
r 1.866833 0 15 tcp 1040 ------- 0 4.9 15.0 405 1578
r 1.867665 0 15 tcp 1040 ------- 0 4.9 15.0 406 1579
r 1.868497 0 15 tcp 1040 ------- 0 4.9 15.0 407 1581
r 1.869329 0 15 tcp 1040 ------- 0 4.9 15.0 408 1583
r 1.870161 0 15 tcp 1040 ------- 0 4.9 15.0 409 1585
r 1.870993 0 15 tcp 1040 ------- 0 4.9 15.0 410 1587
r 1.879314 0 15 tcp 1040 ------- 0 4.9 15.0 411 1598
r 1.880146 0 15 tcp 1040 ------- 0 4.9 15.0 412 1600
r 1.880978 0 15 tcp 1040 ------- 0 4.9 15.0 413 1602
r 1.88181 0 15 tcp 1040 ------- 0 4.9 15.0 414 1604
r 1.882642 0 15 tcp 1040 ------- 0 4.9 15.0 415 1606
r 1.883474 0 15 tcp 1040 ------- 0 4.9 15.0 416 1608
r 1.884306 0 15 tcp 1040 ------- 0 4.9 15.0 417 1610
r 1.885138 0 15 tcp 1040 ------- 0 4.9 15.0 418 1611
r 1.88597 0 15 tcp 1040 ------- 0 4.9 15.0 419 1612
r 1.886802 0 15 tcp 1040 ------- 0 4.9 15.0 420 1613
r 1.887634 0 15 tcp 1040 ------- 0 4.9 15.0 421 1614
r 1.888466 0 15 tcp 1040 ------- 0 4.9 15.0 422 1615
r 1.889298 0 15 tcp 1040 ------- 0 4.9 15.0 423 1616
r 1.89013 0 15 tcp 1040 ------- 0 4.9 15.0 424 1617
r 1.890962 0 15 tcp 1040 ------- 0 4.9 15.0 425 1618
r 1.891794 0 15 tcp 1040 ------- 0 4.9 15.0 426 1619
r 1.892626 0 15 tcp 1040 ------- 0 4.9 15.0 427 1621
r 1.893458 0 15 tcp 1040 ------- 0 4.9 15.0 428 1623
r 1.89429 0 15 tcp 1040 ------- 0 4.9 15.0 429 1625
r 1.895122 0 15 tcp 1040 ------- 0 4.9 15.0 430 1627
r 1.903442 0 15 tcp 1040 ------- 0 4.9 15.0 431 1638
r 1.904274 0 15 tcp 1040 ------- 0 4.9 15.0 432 1640
r 1.905106 0 15 tcp 1040 ------- 0 4.9 15.0 433 1642
r 1.905938 0 15 tcp 1040 ------- 0 4.9 15.0 434 1644
r 1.90677 0 15 tcp 1040 ------- 0 4.9 15.0 435 1646
r 1.907602 0 15 tcp 1040 ------- 0 4.9 15.0 436 1648
r 1.908434 0 15 tcp 1040 ------- 0 4.9 15.0 437 1650
r 1.909266 0 15 tcp 1040 ------- 0 4.9 15.0 438 1651
r 1.910098 0 15 tcp 1040 ------- 0 4.9 15.0 439 1652
r 1.91093 0 15 tcp 1040 ------- 0 4.9 15.0 440 1653
r 1.911762 0 15 tcp 1040 ------- 0 4.9 15.0 441 1654
r 1.912594 0 15 tcp 1040 ------- 0 4.9 15.0 442 1655
r 1.913426 0 15 tcp 1040 ------- 0 4.9 15.0 443 1656
r 1.914258 0 15 tcp 1040 ------- 0 4.9 15.0 444 1657
r 1.91509 0 15 tcp 1040 ------- 0 4.9 15.0 445 1658
r 1.915922 0 15 tcp 1040 ------- 0 4.9 15.0 446 1659
r 1.916754 0 15 tcp 1040 ------- 0 4.9 15.0 447 1661
r 1.917586 0 15 tcp 1040 ------- 0 4.9 15.0 448 1663
r 1.918418 0 15 tcp 1040 ------- 0 4.9 15.0 449 1665
r 1.91925 0 15 tcp 1040 ------- 0 4.9 15.0 450 1667
r 1.927571 0 15 tcp 1040 ------- 0 4.9 15.0 451 1678
r 1.928403 0 15 tcp 1040 ------- 0 4.9 15.0 452 1680
r 1.929235 0 15 tcp 1040 ------- 0 4.9 15.0 453 1682
r 1.930067 0 15 tcp 1040 ------- 0 4.9 15.0 454 1684
r 1.930899 0 15 tcp 1040 ------- 0 4.9 15.0 455 1686
r 1.931731 0 15 tcp 1040 ------- 0 4.9 15.0 456 1688
r 1.932563 0 15 tcp 1040 ------- 0 4.9 15.0 457 1690
r 1.933395 0 15 tcp 1040 ------- 0 4.9 15.0 458 1691
r 1.934227 0 15 tcp 1040 ------- 0 4.9 15.0 459 1692
r 1.935059 0 15 tcp 1040 ------- 0 4.9 15.0 460 1693
r 1.935891 0 15 tcp 1040 ------- 0 4.9 15.0 461 1694
r 1.936723 0 15 tcp 1040 ------- 0 4.9 15.0 462 1695
r 1.937555 0 15 tcp 1040 ------- 0 4.9 15.0 463 1696
r 1.938387 0 15 tcp 1040 ------- 0 4.9 15.0 464 1697
r 1.939219 0 15 tcp 1040 ------- 0 4.9 15.0 465 1698
r 1.940051 0 15 tcp 1040 ------- 0 4.9 15.0 466 1699
r 1.940883 0 15 tcp 1040 ------- 0 4.9 15.0 467 1701
r 1.941715 0 15 tcp 1040 ------- 0 4.9 15.0 468 1703
r 1.942547 0 15 tcp 1040 ------- 0 4.9 15.0 469 1705
r 1.943379 0 15 tcp 1040 ------- 0 4.9 15.0 470 1707
r 1.9517 0 15 tcp 1040 ------- 0 4.9 15.0 471 1718
r 1.952532 0 15 tcp 1040 ------- 0 4.9 15.0 472 1720
r 1.953364 0 15 tcp 1040 ------- 0 4.9 15.0 473 1722
r 1.954196 0 15 tcp 1040 ------- 0 4.9 15.0 474 1724
r 1.955028 0 15 tcp 1040 ------- 0 4.9 15.0 475 1726
r 1.95586 0 15 tcp 1040 ------- 0 4.9 15.0 476 1728
r 1.956692 0 15 tcp 1040 ------- 0 4.9 15.0 477 1730
r 1.957524 0 15 tcp 1040 ------- 0 4.9 15.0 478 1731
r 1.958356 0 15 tcp 1040 ------- 0 4.9 15.0 479 1732
r 1.959188 0 15 tcp 1040 ------- 0 4.9 15.0 480 1733
r 1.96002 0 15 tcp 1040 ------- 0 4.9 15.0 481 1734
r 1.960852 0 15 tcp 1040 ------- 0 4.9 15.0 482 1735
r 1.961684 0 15 tcp 1040 ------- 0 4.9 15.0 483 1736
r 1.962516 0 15 tcp 1040 ------- 0 4.9 15.0 484 1737
r 1.963348 0 15 tcp 1040 ------- 0 4.9 15.0 485 1738
r 1.96418 0 15 tcp 1040 ------- 0 4.9 15.0 486 1739
r 1.965012 0 15 tcp 1040 ------- 0 4.9 15.0 487 1741
r 1.965844 0 15 tcp 1040 ------- 0 4.9 15.0 488 1743
r 1.966676 0 15 tcp 1040 ------- 0 4.9 15.0 489 1745
r 1.967508 0 15 tcp 1040 ------- 0 4.9 15.0 490 1747
r 1.975829 0 15 tcp 1040 ------- 0 4.9 15.0 491 1758
r 1.976661 0 15 tcp 1040 ------- 0 4.9 15.0 492 1760
r 1.977493 0 15 tcp 1040 ------- 0 4.9 15.0 493 1762
r 1.978325 0 15 tcp 1040 ------- 0 4.9 15.0 494 1764
r 1.979157 0 15 tcp 1040 ------- 0 4.9 15.0 495 1766
r 1.979989 0 15 tcp 1040 ------- 0 4.9 15.0 496 1768
r 1.980821 0 15 tcp 1040 ------- 0 4.9 15.0 497 1770
r 1.981653 0 15 tcp 1040 ------- 0 4.9 15.0 498 1771
r 1.982485 0 15 tcp 1040 ------- 0 4.9 15.0 499 1772
r 1.983317 0 15 tcp 1040 ------- 0 4.9 15.0 500 1773
r 1.984149 0 15 tcp 1040 ------- 0 4.9 15.0 501 1774
r 1.984981 0 15 tcp 1040 ------- 0 4.9 15.0 502 1775
r 1.985813 0 15 tcp 1040 ------- 0 4.9 15.0 503 1776
r 1.986645 0 15 tcp 1040 ------- 0 4.9 15.0 504 1777
r 1.987477 0 15 tcp 1040 ------- 0 4.9 15.0 505 1778
r 1.988309 0 15 tcp 1040 ------- 0 4.9 15.0 506 1779
r 1.989141 0 15 tcp 1040 ------- 0 4.9 15.0 507 1781
r 1.989973 0 15 tcp 1040 ------- 0 4.9 15.0 508 1783
r 1.990805 0 15 tcp 1040 ------- 0 4.9 15.0 509 1785
r 1.991637 0 15 tcp 1040 ------- 0 4.9 15.0 510 1787
r 1.999958 0 15 tcp 1040 ------- 0 4.9 15.0 511 1798
r 2.00079 0 15 tcp 1040 ------- 0 4.9 15.0 512 1800
r 2.001622 0 15 tcp 1040 ------- 0 4.9 15.0 513 1802
r 2.002454 0 15 tcp 1040 ------- 0 4.9 15.0 514 1804
r 2.003286 0 15 tcp 1040 ------- 0 4.9 15.0 515 1806
r 2.004118 0 15 tcp 1040 ------- 0 4.9 15.0 516 1808
r 2.00495 0 15 tcp 1040 ------- 0 4.9 15.0 517 1810
r 2.005782 0 15 tcp 1040 ------- 0 4.9 15.0 518 1811
r 2.006614 0 15 tcp 1040 ------- 0 4.9 15.0 519 1812
r 2.007446 0 15 tcp 1040 ------- 0 4.9 15.0 520 1813
r 2.008278 0 15 tcp 1040 ------- 0 4.9 15.0 521 1814
r 2.00911 0 15 tcp 1040 ------- 0 4.9 15.0 522 1815
r 2.009942 0 15 tcp 1040 ------- 0 4.9 15.0 523 1816
r 2.010774 0 15 tcp 1040 ------- 0 4.9 15.0 524 1817
r 2.011606 0 15 tcp 1040 ------- 0 4.9 15.0 525 1818
r 2.012438 0 15 tcp 1040 ------- 0 4.9 15.0 526 1819
r 2.01327 0 15 tcp 1040 ------- 0 4.9 15.0 527 1821
r 2.014102 0 15 tcp 1040 ------- 0 4.9 15.0 528 1823
r 2.014934 0 15 tcp 1040 ------- 0 4.9 15.0 529 1825
r 2.015766 0 15 tcp 1040 ------- 0 4.9 15.0 530 1827
r 2.024086 0 15 tcp 1040 ------- 0 4.9 15.0 531 1838
r 2.024918 0 15 tcp 1040 ------- 0 4.9 15.0 532 1840
r 2.02575 0 15 tcp 1040 ------- 0 4.9 15.0 533 1842
r 2.026582 0 15 tcp 1040 ------- 0 4.9 15.0 534 1844
r 2.027414 0 15 tcp 1040 ------- 0 4.9 15.0 535 1846
r 2.028246 0 15 tcp 1040 ------- 0 4.9 15.0 536 1848
r 2.029078 0 15 tcp 1040 ------- 0 4.9 15.0 537 1850
r 2.02991 0 15 tcp 1040 ------- 0 4.9 15.0 538 1851
r 2.030742 0 15 tcp 1040 ------- 0 4.9 15.0 539 1852
r 2.031574 0 15 tcp 1040 ------- 0 4.9 15.0 540 1853
r 2.032406 0 15 tcp 1040 ------- 0 4.9 15.0 541 1854
r 2.033238 0 15 tcp 1040 ------- 0 4.9 15.0 542 1855
r 2.03407 0 15 tcp 1040 ------- 0 4.9 15.0 543 1856
r 2.034902 0 15 tcp 1040 ------- 0 4.9 15.0 544 1857
r 2.035734 0 15 tcp 1040 ------- 0 4.9 15.0 545 1858
r 2.036566 0 15 tcp 1040 ------- 0 4.9 15.0 546 1859
r 2.037398 0 15 tcp 1040 ------- 0 4.9 15.0 547 1861
r 2.03823 0 15 tcp 1040 ------- 0 4.9 15.0 548 1863
r 2.039062 0 15 tcp 1040 ------- 0 4.9 15.0 549 1865
r 2.039894 0 15 tcp 1040 ------- 0 4.9 15.0 550 1867
r 2.048215 0 15 tcp 1040 ------- 0 4.9 15.0 551 1878
r 2.049047 0 15 tcp 1040 ------- 0 4.9 15.0 552 1880
r 2.049879 0 15 tcp 1040 ------- 0 4.9 15.0 553 1882
r 2.050711 0 15 tcp 1040 ------- 0 4.9 15.0 554 1884
r 2.051543 0 15 tcp 1040 ------- 0 4.9 15.0 555 1886
r 2.052375 0 15 tcp 1040 ------- 0 4.9 15.0 556 1888
r 2.053207 0 15 tcp 1040 ------- 0 4.9 15.0 557 1890
r 2.054039 0 15 tcp 1040 ------- 0 4.9 15.0 558 1891
r 2.054871 0 15 tcp 1040 ------- 0 4.9 15.0 559 1892
r 2.055703 0 15 tcp 1040 ------- 0 4.9 15.0 560 1893
r 2.056535 0 15 tcp 1040 ------- 0 4.9 15.0 561 1894
r 2.057367 0 15 tcp 1040 ------- 0 4.9 15.0 562 1895
r 2.058199 0 15 tcp 1040 ------- 0 4.9 15.0 563 1896
r 2.059031 0 15 tcp 1040 ------- 0 4.9 15.0 564 1897
r 2.059863 0 15 tcp 1040 ------- 0 4.9 15.0 565 1898
r 2.060695 0 15 tcp 1040 ------- 0 4.9 15.0 566 1899
r 2.061527 0 15 tcp 1040 ------- 0 4.9 15.0 567 1901
r 2.062359 0 15 tcp 1040 ------- 0 4.9 15.0 568 1903
r 2.063191 0 15 tcp 1040 ------- 0 4.9 15.0 569 1905
r 2.064023 0 15 tcp 1040 ------- 0 4.9 15.0 570 1907