r 0.11127 0 12 tcp 40 ------- 0 4.6 12.0 0 6
r 0.145191 0 12 tcp 1040 ------- 0 4.6 12.0 1 32
r 0.146023 0 12 tcp 1040 ------- 0 4.6 12.0 2 33
r 0.179304 0 12 tcp 1040 ------- 0 4.6 12.0 3 84
r 0.180136 0 12 tcp 1040 ------- 0 4.6 12.0 4 85
r 0.180968 0 12 tcp 1040 ------- 0 4.6 12.0 5 86
r 0.1818 0 12 tcp 1040 ------- 0 4.6 12.0 6 87
r 0.232552 0 12 tcp 1040 ------- 0 4.6 12.0 7 186
r 0.233384 0 12 tcp 1040 ------- 0 4.6 12.0 8 187
r 0.234216 0 12 tcp 1040 ------- 0 4.6 12.0 9 189
r 0.235048 0 12 tcp 1040 ------- 0 4.6 12.0 10 190
r 0.23588 0 12 tcp 1040 ------- 0 4.6 12.0 11 192
r 0.236712 0 12 tcp 1040 ------- 0 4.6 12.0 12 193
r 0.237544 0 12 tcp 1040 ------- 0 4.6 12.0 13 195
r 0.238376 0 12 tcp 1040 ------- 0 4.6 12.0 14 196
r 0.297448 0 12 tcp 1040 ------- 0 4.6 12.0 15 378
r 0.29828 0 12 tcp 1040 ------- 0 4.6 12.0 17 381
r 0.299112 0 12 tcp 1040 ------- 0 4.6 12.0 19 384
r 0.299944 0 12 tcp 1040 ------- 0 4.6 12.0 21 387
r 0.300776 0 12 tcp 1040 ------- 0 4.6 12.0 23 390
r 0.301608 0 12 tcp 1040 ------- 0 4.6 12.0 25 393
r 0.30244 0 12 tcp 1040 ------- 0 4.6 12.0 27 396
r 0.303272 0 12 tcp 1040 ------- 0 4.6 12.0 29 399
r 0.346536 0 12 tcp 1040 ------- 0 4.6 12.0 31 545
r 0.347368 0 12 tcp 1040 ------- 0 4.6 12.0 32 546
r 0.3482 0 12 tcp 1040 ------- 0 4.6 12.0 33 548
r 0.349032 0 12 tcp 1040 ------- 0 4.6 12.0 34 550
r 0.349864 0 12 tcp 1040 ---A--- 0 4.6 12.0 16 552
r 0.373993 0 12 tcp 1040 ------- 0 4.6 12.0 18 637
r 0.374825 0 12 tcp 1040 ------- 0 4.6 12.0 19 638
r 0.405609 0 12 tcp 1040 ------- 0 4.6 12.0 20 688
r 0.406441 0 12 tcp 1040 ------- 0 4.6 12.0 21 689
r 0.407273 0 12 tcp 1040 ------- 0 4.6 12.0 22 690
r 0.408105 0 12 tcp 1040 ------- 0 4.6 12.0 23 692
r 0.448873 0 12 tcp 1040 ------- 0 4.6 12.0 24 778
r 0.449705 0 12 tcp 1040 ------- 0 4.6 12.0 25 779
r 0.450537 0 12 tcp 1040 ------- 0 4.6 12.0 26 781
r 0.451369 0 12 tcp 1040 ------- 0 4.6 12.0 27 783
r 0.452201 0 12 tcp 1040 ------- 0 4.6 12.0 28 784
r 0.453033 0 12 tcp 1040 ------- 0 4.6 12.0 29 786
r 0.513769 0 12 tcp 1040 ------- 0 4.6 12.0 30 908
r 0.514601 0 12 tcp 1040 ------- 0 4.6 12.0 32 911
r 0.515433 0 12 tcp 1040 ------- 0 4.6 12.0 33 913
r 0.516265 0 12 tcp 1040 ------- 0 4.6 12.0 35 916
r 0.517097 0 12 tcp 1040 ------- 0 4.6 12.0 36 918
r 0.517929 0 12 tcp 1040 ------- 0 4.6 12.0 38 921
r 0.572009 0 12 tcp 1040 ------- 0 4.6 12.0 39 1069
r 0.572841 0 12 tcp 1040 ------- 0 4.6 12.0 40 1070
r 0.573673 0 12 tcp 1040 ------- 0 4.6 12.0 41 1071
r 0.574505 0 12 tcp 1040 ------- 0 4.6 12.0 42 1072
r 0.575337 0 12 tcp 1040 ------- 0 4.6 12.0 43 1074
r 0.576169 0 12 tcp 1040 ------- 0 4.6 12.0 44 1076
r 0.577001 0 12 tcp 1040 ------- 0 4.6 12.0 45 1080
r 0.631081 0 12 tcp 1040 ------- 0 4.6 12.0 46 1210
r 0.631913 0 12 tcp 1040 ---A--- 0 4.6 12.0 37 1212
r 0.672681 0 12 tcp 1040 ------- 0 4.6 12.0 47 1332
r 0.673513 0 12 tcp 1040 ------- 0 4.6 12.0 48 1333
r 0.721769 0 12 tcp 1040 ------- 0 4.6 12.0 49 1440
r 0.722601 0 12 tcp 1040 ------- 0 4.6 12.0 50 1441
r 0.723433 0 12 tcp 1040 ------- 0 4.6 12.0 51 1443
r 0.724265 0 12 tcp 1040 ------- 0 4.6 12.0 52 1444
r 0.780009 0 12 tcp 1040 ------- 0 4.6 12.0 53 1569
r 0.780841 0 12 tcp 1040 ------- 0 4.6 12.0 54 1571
r 0.781673 0 12 tcp 1040 ------- 0 4.6 12.0 55 1573
r 0.782505 0 12 tcp 1040 ------- 0 4.6 12.0 56 1575
r 0.844905 0 12 tcp 1040 ------- 0 4.6 12.0 57 1717
r 0.845737 0 12 tcp 1040 ------- 0 4.6 12.0 59 1720
r 0.846569 0 12 tcp 1040 ------- 0 4.6 12.0 60 1722
r 0.847401 0 12 tcp 1040 ------- 0 4.6 12.0 61 1724
r 0.909801 0 12 tcp 1040 ------- 0 4.6 12.0 62 1882
r 0.910633 0 12 tcp 1040 ------- 0 4.6 12.0 63 1884
r 0.911465 0 12 tcp 1040 ------- 0 4.6 12.0 64 1886
r 0.912297 0 12 tcp 1040 ---A--- 0 4.6 12.0 58 1888
r 0.974697 0 12 tcp 1040 ------- 0 4.6 12.0 65 2042
r 0.975529 0 12 tcp 1040 ------- 0 4.6 12.0 66 2043
r 0.998826 0 12 tcp 1040 ------- 0 4.6 12.0 67 2135
r 0.999658 0 12 tcp 1040 ------- 0 4.6 12.0 68 2136
r 1.022954 0 12 tcp 1040 ------- 0 4.6 12.0 69 2176
r 1.023786 0 12 tcp 1040 ------- 0 4.6 12.0 70 2177
r 1.024618 0 12 tcp 1040 ------- 0 4.6 12.0 71 2179
r 1.052074 0 12 tcp 1040 ------- 0 4.6 12.0 72 2234
r 1.052906 0 12 tcp 1040 ------- 0 4.6 12.0 73 2236
r 1.053738 0 12 tcp 1040 ------- 0 4.6 12.0 74 2237
r 1.05457 0 12 tcp 1040 ------- 0 4.6 12.0 75 2239
r 1.095338 0 12 tcp 1040 ------- 0 4.6 12.0 76 2321
r 1.09617 0 12 tcp 1040 ------- 0 4.6 12.0 77 2323
r 1.097002 0 12 tcp 1040 ------- 0 4.6 12.0 78 2325
r 1.097834 0 12 tcp 1040 ------- 0 4.6 12.0 79 2327
r 1.098666 0 12 tcp 1040 ------- 0 4.6 12.0 80 2328
r 1.145258 0 12 tcp 1040 ------- 0 4.6 12.0 81 2433
r 1.14609 0 12 tcp 1040 ------- 0 4.6 12.0 82 2435
r 1.146922 0 12 tcp 1040 ------- 0 4.6 12.0 83 2437
r 1.147754 0 12 tcp 1040 ------- 0 4.6 12.0 84 2439
r 1.148586 0 12 tcp 1040 ------- 0 4.6 12.0 85 2441
r 1.149418 0 12 tcp 1040 ------- 0 4.6 12.0 86 2442
r 1.203498 0 12 tcp 1040 ------- 0 4.6 12.0 87 2563
r 1.20433 0 12 tcp 1040 ------- 0 4.6 12.0 88 2565
r 1.205162 0 12 tcp 1040 ------- 0 4.6 12.0 89 2567
r 1.205994 0 12 tcp 1040 ------- 0 4.6 12.0 90 2569
r 1.206826 0 12 tcp 1040 ------- 0 4.6 12.0 91 2571
r 1.207658 0 12 tcp 1040 ------- 0 4.6 12.0 92 2573
r 1.20849 0 12 tcp 1040 ------- 0 4.6 12.0 93 2574
r 1.26673 0 12 tcp 1040 ------- 0 4.6 12.0 94 2709
r 1.267562 0 12 tcp 1040 ------- 0 4.6 12.0 95 2711
r 1.268394 0 12 tcp 1040 ------- 0 4.6 12.0 96 2713
r 1.269226 0 12 tcp 1040 ------- 0 4.6 12.0 97 2715
r 1.270058 0 12 tcp 1040 ------- 0 4.6 12.0 98 2717
r 1.27089 0 12 tcp 1040 ------- 0 4.6 12.0 99 2719
r 1.271722 0 12 tcp 1040 ------- 0 4.6 12.0 100 2721
r 1.331626 0 12 tcp 1040 ------- 0 4.6 12.0 101 2868
r 1.332458 0 12 tcp 1040 ------- 0 4.6 12.0 103 2871
r 1.33329 0 12 tcp 1040 ------- 0 4.6 12.0 104 2873
r 1.334122 0 12 tcp 1040 ------- 0 4.6 12.0 105 2875
r 1.334954 0 12 tcp 1040 ------- 0 4.6 12.0 106 2877
r 1.335786 0 12 tcp 1040 ------- 0 4.6 12.0 107 2879
r 1.336618 0 12 tcp 1040 ------- 0 4.6 12.0 108 2881
r 1.379882 0 12 tcp 1040 ------- 0 4.6 12.0 109 3009
r 1.380714 0 12 tcp 1040 ------- 0 4.6 12.0 110 3011
r 1.381546 0 12 tcp 1040 ------- 0 4.6 12.0 111 3013
r 1.382378 0 12 tcp 1040 ---A--- 0 4.6 12.0 102 3015
r 1.41233 0 12 tcp 1040 ------- 0 4.6 12.0 112 3109
r 1.413162 0 12 tcp 1040 ------- 0 4.6 12.0 113 3110
r 1.443115 0 12 tcp 1040 ------- 0 4.6 12.0 114 3167
r 1.443947 0 12 tcp 1040 ------- 0 4.6 12.0 115 3168
r 1.444779 0 12 tcp 1040 ------- 0 4.6 12.0 116 3169
r 1.445611 0 12 tcp 1040 ------- 0 4.6 12.0 117 3170
r 1.478891 0 12 tcp 1040 ------- 0 4.6 12.0 118 3244
r 1.479723 0 12 tcp 1040 ------- 0 4.6 12.0 119 3246
r 1.480555 0 12 tcp 1040 ------- 0 4.6 12.0 120 3248
r 1.481387 0 12 tcp 1040 ------- 0 4.6 12.0 121 3250
r 1.518827 0 12 tcp 1040 ------- 0 4.6 12.0 122 3335
r 1.519659 0 12 tcp 1040 ------- 0 4.6 12.0 123 3336
r 1.520491 0 12 tcp 1040 ------- 0 4.6 12.0 124 3338
r 1.521323 0 12 tcp 1040 ------- 0 4.6 12.0 125 3340
r 1.522155 0 12 tcp 1040 ------- 0 4.6 12.0 126 3342
r 1.567083 0 12 tcp 1040 ------- 0 4.6 12.0 127 3441
r 1.567915 0 12 tcp 1040 ------- 0 4.6 12.0 128 3443
r 1.568747 0 12 tcp 1040 ------- 0 4.6 12.0 129 3444
r 1.569579 0 12 tcp 1040 ------- 0 4.6 12.0 130 3446
r 1.570411 0 12 tcp 1040 ------- 0 4.6 12.0 131 3448
r 1.571243 0 12 tcp 1040 ------- 0 4.6 12.0 132 3450
r 1.622827 0 12 tcp 1040 ------- 0 4.6 12.0 133 3566
r 1.623659 0 12 tcp 1040 ------- 0 4.6 12.0 134 3568
r 1.624491 0 12 tcp 1040 ------- 0 4.6 12.0 135 3570
r 1.625323 0 12 tcp 1040 ------- 0 4.6 12.0 136 3572
r 1.626155 0 12 tcp 1040 ------- 0 4.6 12.0 137 3573
r 1.626987 0 12 tcp 1040 ------- 0 4.6 12.0 138 3575
r 1.627819 0 12 tcp 1040 ------- 0 4.6 12.0 139 3577
r 1.686891 0 12 tcp 1040 ------- 0 4.6 12.0 140 3710
r 1.687723 0 12 tcp 1040 ------- 0 4.6 12.0 141 3712
r 1.688555 0 12 tcp 1040 ------- 0 4.6 12.0 142 3714
r 1.689387 0 12 tcp 1040 ------- 0 4.6 12.0 143 3716
r 1.690219 0 12 tcp 1040 ------- 0 4.6 12.0 144 3718
r 1.691051 0 12 tcp 1040 ------- 0 4.6 12.0 145 3719
r 1.691883 0 12 tcp 1040 ------- 0 4.6 12.0 146 3721
r 1.692715 0 12 tcp 1040 ------- 0 4.6 12.0 147 3723
r 1.751787 0 12 tcp 1040 ------- 0 4.6 12.0 148 3874
r 1.752619 0 12 tcp 1040 ------- 0 4.6 12.0 149 3876
r 1.753451 0 12 tcp 1040 ------- 0 4.6 12.0 150 3878
r 1.754283 0 12 tcp 1040 ------- 0 4.6 12.0 151 3880
r 1.755115 0 12 tcp 1040 ------- 0 4.6 12.0 152 3882
r 1.755947 0 12 tcp 1040 ------- 0 4.6 12.0 153 3884
r 1.756779 0 12 tcp 1040 ------- 0 4.6 12.0 154 3886
r 1.757611 0 12 tcp 1040 ------- 0 4.6 12.0 156 3889
r 1.815851 0 12 tcp 1040 ------- 0 4.6 12.0 157 4030
r 1.816683 0 12 tcp 1040 ------- 0 4.6 12.0 158 4032
r 1.817515 0 12 tcp 1040 ------- 0 4.6 12.0 159 4034
r 1.818347 0 12 tcp 1040 ------- 0 4.6 12.0 160 4036
r 1.819179 0 12 tcp 1040 ------- 0 4.6 12.0 161 4038
r 1.820011 0 12 tcp 1040 ------- 0 4.6 12.0 162 4040
r 1.820843 0 12 tcp 1040 ------- 0 4.6 12.0 163 4042
r 1.821675 0 12 tcp 1040 ------- 0 4.6 12.0 164 4044
r 1.840812 0 12 tcp 1040 ------- 0 4.6 12.0 165 4133
r 1.841644 0 12 tcp 1040 ---A--- 0 4.6 12.0 155 4135
r 1.865773 0 12 tcp 1040 ------- 0 4.6 12.0 166 4176
r 1.866605 0 12 tcp 1040 ------- 0 4.6 12.0 167 4177
r 1.900717 0 12 tcp 1040 ------- 0 4.6 12.0 168 4235
r 1.901549 0 12 tcp 1040 ------- 0 4.6 12.0 169 4236
r 1.902381 0 12 tcp 1040 ------- 0 4.6 12.0 170 4238
r 1.903213 0 12 tcp 1040 ------- 0 4.6 12.0 171 4239
r 1.938157 0 12 tcp 1040 ------- 0 4.6 12.0 172 4322
r 1.938989 0 12 tcp 1040 ------- 0 4.6 12.0 173 4324
r 1.939821 0 12 tcp 1040 ------- 0 4.6 12.0 174 4326
r 1.940653 0 12 tcp 1040 ------- 0 4.6 12.0 175 4328
r 1.982253 0 12 tcp 1040 ------- 0 4.6 12.0 176 4420
r 1.983085 0 12 tcp 1040 ------- 0 4.6 12.0 177 4421
r 1.983917 0 12 tcp 1040 ------- 0 4.6 12.0 178 4423
r 1.984749 0 12 tcp 1040 ------- 0 4.6 12.0 179 4425
r 1.985581 0 12 tcp 1040 ------- 0 4.6 12.0 180 4427
r 2.034669 0 12 tcp 1040 ------- 0 4.6 12.0 181 4536
r 2.035501 0 12 tcp 1040 ------- 0 4.6 12.0 182 4538
r 2.036333 0 12 tcp 1040 ------- 0 4.6 12.0 183 4539
r 2.037165 0 12 tcp 1040 ------- 0 4.6 12.0 184 4541
r 2.037997 0 12 tcp 1040 ------- 0 4.6 12.0 185 4543
r 2.038829 0 12 tcp 1040 ------- 0 4.6 12.0 186 4545
r 2.095405 0 12 tcp 1040 ------- 0 4.6 12.0 187 4672
r 2.096237 0 12 tcp 1040 ------- 0 4.6 12.0 188 4674
r 2.097069 0 12 tcp 1040 ------- 0 4.6 12.0 189 4676
r 2.097901 0 12 tcp 1040 ------- 0 4.6 12.0 190 4678
r 2.098733 0 12 tcp 1040 ------- 0 4.6 12.0 191 4679
r 2.099565 0 12 tcp 1040 ------- 0 4.6 12.0 192 4681
r 2.100397 0 12 tcp 1040 ------- 0 4.6 12.0 193 4683
r 2.160301 0 12 tcp 1040 ------- 0 4.6 12.0 194 4828
r 2.161133 0 12 tcp 1040 ------- 0 4.6 12.0 195 4830
r 2.161965 0 12 tcp 1040 ------- 0 4.6 12.0 196 4832
r 2.162797 0 12 tcp 1040 ------- 0 4.6 12.0 197 4834
r 2.163629 0 12 tcp 1040 ------- 0 4.6 12.0 198 4836
r 2.164461 0 12 tcp 1040 ------- 0 4.6 12.0 200 4839
r 2.165293 0 12 tcp 1040 ------- 0 4.6 12.0 201 4841
r 2.224365 0 12 tcp 1040 ------- 0 4.6 12.0 202 4988
r 2.225197 0 12 tcp 1040 ------- 0 4.6 12.0 203 4990
r 2.226029 0 12 tcp 1040 ------- 0 4.6 12.0 204 4992
r 2.226861 0 12 tcp 1040 ------- 0 4.6 12.0 205 4994
r 2.227693 0 12 tcp 1040 ------- 0 4.6 12.0 206 4996
r 2.228525 0 12 tcp 1040 ------- 0 4.6 12.0 207 4998
r 2.229357 0 12 tcp 1040 ------- 0 4.6 12.0 208 5000
r 2.265133 0 12 tcp 1040 ---A--- 0 4.6 12.0 199 5114
r 2.291758 0 12 tcp 1040 ------- 0 4.6 12.0 209 5179
r 2.29259 0 12 tcp 1040 ------- 0 4.6 12.0 210 5180
r 2.322542 0 12 tcp 1040 ------- 0 4.6 12.0 211 5231
r 2.323374 0 12 tcp 1040 ------- 0 4.6 12.0 212 5232
r 2.324206 0 12 tcp 1040 ------- 0 4.6 12.0 213 5233
r 2.325038 0 12 tcp 1040 ------- 0 4.6 12.0 214 5234
r 2.356654 0 12 tcp 1040 ------- 0 4.6 12.0 215 5306
r 2.357486 0 12 tcp 1040 ------- 0 4.6 12.0 216 5308
r 2.358318 0 12 tcp 1040 ------- 0 4.6 12.0 217 5310
r 2.35915 0 12 tcp 1040 ------- 0 4.6 12.0 218 5312
r 2.394926 0 12 tcp 1040 ------- 0 4.6 12.0 219 5393
r 2.395758 0 12 tcp 1040 ------- 0 4.6 12.0 220 5394
r 2.39659 0 12 tcp 1040 ------- 0 4.6 12.0 221 5396
r 2.397422 0 12 tcp 1040 ------- 0 4.6 12.0 222 5398
r 2.398254 0 12 tcp 1040 ------- 0 4.6 12.0 223 5400
r 2.441518 0 12 tcp 1040 ------- 0 4.6 12.0 224 5495
r 2.44235 0 12 tcp 1040 ------- 0 4.6 12.0 225 5497
r 2.443182 0 12 tcp 1040 ------- 0 4.6 12.0 226 5498
r 2.444014 0 12 tcp 1040 ------- 0 4.6 12.0 227 5500
r 2.444846 0 12 tcp 1040 ------- 0 4.6 12.0 228 5502
r 2.445678 0 12 tcp 1040 ------- 0 4.6 12.0 229 5504
r 2.49643 0 12 tcp 1040 ------- 0 4.6 12.0 230 5617
r 2.497262 0 12 tcp 1040 ------- 0 4.6 12.0 231 5619
r 2.498094 0 12 tcp 1040 ------- 0 4.6 12.0 232 5621
r 2.498926 0 12 tcp 1040 ------- 0 4.6 12.0 233 5623
r 2.499758 0 12 tcp 1040 ------- 0 4.6 12.0 234 5624
r 2.50059 0 12 tcp 1040 ------- 0 4.6 12.0 235 5626
r 2.501422 0 12 tcp 1040 ------- 0 4.6 12.0 236 5628
r 2.559662 0 12 tcp 1040 ------- 0 4.6 12.0 237 5759
r 2.560494 0 12 tcp 1040 ------- 0 4.6 12.0 238 5761
r 2.561326 0 12 tcp 1040 ------- 0 4.6 12.0 239 5763
r 2.562158 0 12 tcp 1040 ------- 0 4.6 12.0 240 5765
r 2.56299 0 12 tcp 1040 ------- 0 4.6 12.0 241 5767
r 2.563822 0 12 tcp 1040 ------- 0 4.6 12.0 242 5768
r 2.564654 0 12 tcp 1040 ------- 0 4.6 12.0 243 5770
r 2.565486 0 12 tcp 1040 ------- 0 4.6 12.0 244 5772
r 2.624558 0 12 tcp 1040 ------- 0 4.6 12.0 245 5921
r 2.62539 0 12 tcp 1040 ------- 0 4.6 12.0 246 5923
r 2.626222 0 12 tcp 1040 ------- 0 4.6 12.0 247 5925
r 2.627054 0 12 tcp 1040 ------- 0 4.6 12.0 248 5927
r 2.627886 0 12 tcp 1040 ------- 0 4.6 12.0 249 5929
r 2.628718 0 12 tcp 1040 ------- 0 4.6 12.0 250 5931
r 2.62955 0 12 tcp 1040 ------- 0 4.6 12.0 251 5933
r 2.630382 0 12 tcp 1040 ------- 0 4.6 12.0 253 5936
r 2.689454 0 12 tcp 1040 ------- 0 4.6 12.0 254 6079
r 2.690286 0 12 tcp 1040 ------- 0 4.6 12.0 255 6081
r 2.691118 0 12 tcp 1040 ------- 0 4.6 12.0 256 6083
r 2.69195 0 12 tcp 1040 ------- 0 4.6 12.0 257 6085
r 2.692782 0 12 tcp 1040 ------- 0 4.6 12.0 258 6087
r 2.693614 0 12 tcp 1040 ------- 0 4.6 12.0 259 6089
r 2.694446 0 12 tcp 1040 ------- 0 4.6 12.0 260 6091
r 2.695278 0 12 tcp 1040 ------- 0 4.6 12.0 261 6093
r 2.713583 0 12 tcp 1040 ------- 0 4.6 12.0 262 6186
r 2.714415 0 12 tcp 1040 ---A--- 0 4.6 12.0 252 6188
r 2.740207 0 12 tcp 1040 ------- 0 4.6 12.0 263 6225
r 2.741039 0 12 tcp 1040 ------- 0 4.6 12.0 264 6226
r 2.777648 0 12 tcp 1040 ------- 0 4.6 12.0 265 6282
r 2.77848 0 12 tcp 1040 ------- 0 4.6 12.0 266 6283
r 2.779312 0 12 tcp 1040 ------- 0 4.6 12.0 267 6285
r 2.780144 0 12 tcp 1040 ------- 0 4.6 12.0 268 6286
r 2.81176 0 12 tcp 1040 ------- 0 4.6 12.0 269 6368
r 2.812592 0 12 tcp 1040 ------- 0 4.6 12.0 270 6370
r 2.813424 0 12 tcp 1040 ------- 0 4.6 12.0 271 6372
r 2.814256 0 12 tcp 1040 ------- 0 4.6 12.0 272 6374
r 2.852528 0 12 tcp 1040 ------- 0 4.6 12.0 273 6458
r 2.85336 0 12 tcp 1040 ------- 0 4.6 12.0 274 6459
r 2.854192 0 12 tcp 1040 ------- 0 4.6 12.0 275 6461
r 2.855024 0 12 tcp 1040 ------- 0 4.6 12.0 276 6463
r 2.855856 0 12 tcp 1040 ------- 0 4.6 12.0 277 6465
r 2.901616 0 12 tcp 1040 ------- 0 4.6 12.0 278 6566
r 2.902448 0 12 tcp 1040 ------- 0 4.6 12.0 279 6568
r 2.90328 0 12 tcp 1040 ------- 0 4.6 12.0 280 6569
r 2.904112 0 12 tcp 1040 ------- 0 4.6 12.0 281 6571
r 2.904944 0 12 tcp 1040 ------- 0 4.6 12.0 282 6573
r 2.905776 0 12 tcp 1040 ------- 0 4.6 12.0 283 6575
r 2.959024 0 12 tcp 1040 ------- 0 4.6 12.0 284 6694
r 2.959856 0 12 tcp 1040 ------- 0 4.6 12.0 285 6696
r 2.960688 0 12 tcp 1040 ------- 0 4.6 12.0 286 6698
r 2.96152 0 12 tcp 1040 ------- 0 4.6 12.0 287 6700
r 2.962352 0 12 tcp 1040 ------- 0 4.6 12.0 288 6701
r 2.963184 0 12 tcp 1040 ------- 0 4.6 12.0 289 6703
r 2.964016 0 12 tcp 1040 ------- 0 4.6 12.0 290 6705
r 3.02392 0 12 tcp 1040 ------- 0 4.6 12.0 291 6842
r 3.024752 0 12 tcp 1040 ------- 0 4.6 12.0 292 6844
r 3.025584 0 12 tcp 1040 ------- 0 4.6 12.0 293 6846
r 3.026416 0 12 tcp 1040 ------- 0 4.6 12.0 294 6848
r 3.027248 0 12 tcp 1040 ------- 0 4.6 12.0 295 6850
r 3.02808 0 12 tcp 1040 ------- 0 4.6 12.0 297 6853
r 3.028912 0 12 tcp 1040 ------- 0 4.6 12.0 298 6855
r 3.088816 0 12 tcp 1040 ------- 0 4.6 12.0 299 7047
r 3.089648 0 12 tcp 1040 ------- 0 4.6 12.0 300 7049
r 3.09048 0 12 tcp 1040 ------- 0 4.6 12.0 301 7051
r 3.091312 0 12 tcp 1040 ------- 0 4.6 12.0 302 7053
r 3.092144 0 12 tcp 1040 ------- 0 4.6 12.0 303 7070
r 3.092976 0 12 tcp 1040 ------- 0 4.6 12.0 304 7071
r 3.093808 0 12 tcp 1040 ------- 0 4.6 12.0 305 7072
r 3.149552 0 12 tcp 1040 ---A--- 0 4.6 12.0 296 7246
r 3.178551 0 12 tcp 1040 ------- 0 4.6 12.0 306 7382
r 3.179383 0 12 tcp 1040 ------- 0 4.6 12.0 307 7383
r 3.211161 0 12 tcp 1040 ------- 0 4.6 12.0 308 7483
r 3.211993 0 12 tcp 1040 ------- 0 4.6 12.0 309 7484
r 3.212825 0 12 tcp 1040 ------- 0 4.6 12.0 310 7486
r 3.213657 0 12 tcp 1040 ------- 0 4.6 12.0 311 7487
r 3.251929 0 12 tcp 1040 ------- 0 4.6 12.0 312 7584
r 3.252761 0 12 tcp 1040 ------- 0 4.6 12.0 313 7586
r 3.253593 0 12 tcp 1040 ------- 0 4.6 12.0 314 7588
r 3.254425 0 12 tcp 1040 ------- 0 4.6 12.0 315 7590
r 3.294361 0 12 tcp 1040 ------- 0 4.6 12.0 316 7707
r 3.295193 0 12 tcp 1040 ------- 0 4.6 12.0 317 7708
r 3.296025 0 12 tcp 1040 ------- 0 4.6 12.0 318 7709
r 3.296857 0 12 tcp 1040 ------- 0 4.6 12.0 319 7710
r 3.297689 0 12 tcp 1040 ------- 0 4.6 12.0 320 7711
r 3.345113 0 12 tcp 1040 ------- 0 4.6 12.0 321 7856
r 3.345945 0 12 tcp 1040 ------- 0 4.6 12.0 322 7873
r 3.346777 0 12 tcp 1040 ------- 0 4.6 12.0 323 7874
r 3.347609 0 12 tcp 1040 ------- 0 4.6 12.0 324 7875
r 3.348441 0 12 tcp 1040 ------- 0 4.6 12.0 325 7876
r 3.349273 0 12 tcp 1040 ------- 0 4.6 12.0 326 7877
r 3.404185 0 12 tcp 1040 ------- 0 4.6 12.0 327 8028
r 3.405017 0 12 tcp 1040 ------- 0 4.6 12.0 328 8030
r 3.405849 0 12 tcp 1040 ------- 0 4.6 12.0 329 8032
r 3.406681 0 12 tcp 1040 ------- 0 4.6 12.0 330 8034
r 3.407513 0 12 tcp 1040 ------- 0 4.6 12.0 331 8035
r 3.408345 0 12 tcp 1040 ------- 0 4.6 12.0 332 8052
r 3.409177 0 12 tcp 1040 ------- 0 4.6 12.0 333 8053
r 3.469913 0 12 tcp 1040 ------- 0 4.6 12.0 334 8233
r 3.470745 0 12 tcp 1040 ------- 0 4.6 12.0 335 8234
r 3.471577 0 12 tcp 1040 ------- 0 4.6 12.0 336 8235
r 3.472409 0 12 tcp 1040 ------- 0 4.6 12.0 337 8236
r 3.473241 0 12 tcp 1040 ------- 0 4.6 12.0 338 8237
r 3.474073 0 12 tcp 1040 ------- 0 4.6 12.0 339 8238
r 3.474905 0 12 tcp 1040 ------- 0 4.6 12.0 340 8239
r 3.475737 0 12 tcp 1040 ------- 0 4.6 12.0 341 8240
r 3.535641 0 12 tcp 1040 ------- 0 4.6 12.0 342 8426
r 3.536473 0 12 tcp 1040 ------- 0 4.6 12.0 343 8428
r 3.537305 0 12 tcp 1040 ------- 0 4.6 12.0 344 8450
r 3.538137 0 12 tcp 1040 ------- 0 4.6 12.0 346 8454
r 3.538969 0 12 tcp 1040 ------- 0 4.6 12.0 347 8456
r 3.539801 0 12 tcp 1040 ------- 0 4.6 12.0 348 8458
r 3.540633 0 12 tcp 1040 ------- 0 4.6 12.0 350 8461
r 3.590553 0 12 tcp 1040 ------- 0 4.6 12.0 351 8636
r 3.591385 0 12 tcp 1040 ------- 0 4.6 12.0 352 8653
r 3.592217 0 12 tcp 1040 ------- 0 4.6 12.0 353 8654
r 3.593049 0 12 tcp 1040 ------- 0 4.6 12.0 354 8655
r 3.593881 0 12 tcp 1040 ------- 0 4.6 12.0 355 8656
r 3.594713 0 12 tcp 1040 ---A--- 0 4.6 12.0 345 8657
r 3.629657 0 12 tcp 1040 ------- 0 4.6 12.0 349 8803
r 3.630489 0 12 tcp 1040 ------- 0 4.6 12.0 350 8804
r 3.67151 0 12 tcp 1040 ------- 0 4.6 12.0 356 8903
r 3.672342 0 12 tcp 1040 ------- 0 4.6 12.0 357 8904
r 3.673174 0 12 tcp 1040 ------- 0 4.6 12.0 358 8905
r 3.674006 0 12 tcp 1040 ------- 0 4.6 12.0 359 8907
r 3.722262 0 12 tcp 1040 ------- 0 4.6 12.0 360 9064
r 3.723094 0 12 tcp 1040 ------- 0 4.6 12.0 361 9065
r 3.723926 0 12 tcp 1040 ------- 0 4.6 12.0 362 9066
r 3.724758 0 12 tcp 1040 ------- 0 4.6 12.0 363 9067
r 3.776342 0 12 tcp 1040 ------- 0 4.6 12.0 364 9217
r 3.777174 0 12 tcp 1040 ------- 0 4.6 12.0 365 9219
r 3.778006 0 12 tcp 1040 ------- 0 4.6 12.0 366 9220
r 3.778838 0 12 tcp 1040 ------- 0 4.6 12.0 367 9237
r 3.77967 0 12 tcp 1040 ------- 0 4.6 12.0 368 9238
r 3.836246 0 12 tcp 1040 ------- 0 4.6 12.0 369 9394
r 3.837078 0 12 tcp 1040 ------- 0 4.6 12.0 370 9411
r 3.83791 0 12 tcp 1040 ------- 0 4.6 12.0 371 9412
r 3.838742 0 12 tcp 1040 ------- 0 4.6 12.0 372 9413
r 3.839574 0 12 tcp 1040 ------- 0 4.6 12.0 373 9414
r 3.840406 0 12 tcp 1040 ------- 0 4.6 12.0 374 9415
r 3.901142 0 12 tcp 1040 ------- 0 4.6 12.0 375 9597
r 3.901974 0 12 tcp 1040 ------- 0 4.6 12.0 376 9598
r 3.902806 0 12 tcp 1040 ------- 0 4.6 12.0 377 9599
r 3.903638 0 12 tcp 1040 ------- 0 4.6 12.0 378 9600
r 3.90447 0 12 tcp 1040 ------- 0 4.6 12.0 379 9601
r 3.905302 0 12 tcp 1040 ------- 0 4.6 12.0 380 9602
r 3.906134 0 12 tcp 1040 ------- 0 4.6 12.0 381 9603
r 3.961878 0 12 tcp 1040 ------- 0 4.6 12.0 382 9806
r 3.96271 0 12 tcp 1040 ------- 0 4.6 12.0 383 9808
r 3.963542 0 12 tcp 1040 ------- 0 4.6 12.0 384 9810
r 3.964374 0 12 tcp 1040 ------- 0 4.6 12.0 385 9812
r 3.965206 0 12 tcp 1040 ------- 0 4.6 12.0 386 9814
r 3.966038 0 12 tcp 1040 ------- 0 4.6 12.0 387 9816
r 3.96687 0 12 tcp 1040 ------- 0 4.6 12.0 388 9817
r 3.967702 0 12 tcp 1040 ------- 0 4.6 12.0 389 9819
r 4.002646 0 12 tcp 1040 ------- 0 4.6 12.0 390 9968
r 4.003478 0 12 tcp 1040 ------- 0 4.6 12.0 391 9970
r 4.00431 0 12 tcp 1040 ------- 0 4.6 12.0 392 9972
r 4.005142 0 12 tcp 1040 ------- 0 4.6 12.0 393 9989
r 4.005974 0 12 tcp 1040 ------- 0 4.6 12.0 394 9990
r 4.006806 0 12 tcp 1040 ------- 0 4.6 12.0 395 9991
r 4.007638 0 12 tcp 1040 ------- 0 4.6 12.0 396 9992
r 4.00847 0 12 tcp 1040 ------- 0 4.6 12.0 397 9993
r 4.009302 0 12 tcp 1040 ------- 0 4.6 12.0 398 9994
r 4.040686 0 12 tcp 1040 ------- 0 4.6 12.0 399 10082
r 4.041518 0 12 tcp 1040 ------- 0 4.6 12.0 400 10083
r 4.04235 0 12 tcp 1040 ------- 0 4.6 12.0 401 10084
r 4.043182 0 12 tcp 1040 ------- 0 4.6 12.0 402 10086
r 4.044014 0 12 tcp 1040 ------- 0 4.6 12.0 403 10088
r 4.044846 0 12 tcp 1040 ------- 0 4.6 12.0 404 10110
r 4.045678 0 12 tcp 1040 ------- 0 4.6 12.0 405 10112
r 4.04651 0 12 tcp 1040 ------- 0 4.6 12.0 406 10114
r 4.047342 0 12 tcp 1040 ------- 0 4.6 12.0 407 10116
r 4.048174 0 12 tcp 1040 ------- 0 4.6 12.0 408 10117
r 4.088942 0 12 tcp 1040 ------- 0 4.6 12.0 409 10221
r 4.089774 0 12 tcp 1040 ------- 0 4.6 12.0 410 10223
r 4.090606 0 12 tcp 1040 ------- 0 4.6 12.0 411 10225
r 4.091438 0 12 tcp 1040 ------- 0 4.6 12.0 412 10227
r 4.09227 0 12 tcp 1040 ------- 0 4.6 12.0 413 10229
r 4.093102 0 12 tcp 1040 ------- 0 4.6 12.0 414 10246
r 4.093934 0 12 tcp 1040 ------- 0 4.6 12.0 415 10247
r 4.094766 0 12 tcp 1040 ------- 0 4.6 12.0 416 10248
r 4.095598 0 12 tcp 1040 ------- 0 4.6 12.0 417 10249
r 4.09643 0 12 tcp 1040 ------- 0 4.6 12.0 418 10250
r 4.097262 0 12 tcp 1040 ------- 0 4.6 12.0 419 10251
r 4.147182 0 12 tcp 1040 ------- 0 4.6 12.0 420 10389
r 4.148014 0 12 tcp 1040 ------- 0 4.6 12.0 421 10391
r 4.148846 0 12 tcp 1040 ------- 0 4.6 12.0 422 10393
r 4.149678 0 12 tcp 1040 ------- 0 4.6 12.0 423 10395
r 4.15051 0 12 tcp 1040 ------- 0 4.6 12.0 424 10397
r 4.151342 0 12 tcp 1040 ------- 0 4.6 12.0 425 10399
r 4.152174 0 12 tcp 1040 ------- 0 4.6 12.0 426 10401
r 4.153006 0 12 tcp 1040 ------- 0 4.6 12.0 427 10403
r 4.153838 0 12 tcp 1040 ------- 0 4.6 12.0 428 10405
r 4.15467 0 12 tcp 1040 ------- 0 4.6 12.0 429 10407
r 4.155502 0 12 tcp 1040 ------- 0 4.6 12.0 430 10409
r 4.209582 0 12 tcp 1040 ------- 0 4.6 12.0 431 10574
r 4.210414 0 12 tcp 1040 ------- 0 4.6 12.0 432 10575
r 4.211246 0 12 tcp 1040 ------- 0 4.6 12.0 433 10577
r 4.212078 0 12 tcp 1040 ------- 0 4.6 12.0 434 10579
r 4.21291 0 12 tcp 1040 ------- 0 4.6 12.0 435 10581
r 4.213742 0 12 tcp 1040 ------- 0 4.6 12.0 436 10583
r 4.214574 0 12 tcp 1040 ------- 0 4.6 12.0 437 10585
r 4.215406 0 12 tcp 1040 ------- 0 4.6 12.0 438 10602
r 4.216238 0 12 tcp 1040 ------- 0 4.6 12.0 439 10603
r 4.21707 0 12 tcp 1040 ------- 0 4.6 12.0 440 10604
r 4.217902 0 12 tcp 1040 ------- 0 4.6 12.0 441 10605
r 4.218734 0 12 tcp 1040 ------- 0 4.6 12.0 442 10606
r 4.274478 0 12 tcp 1040 ------- 0 4.6 12.0 443 10783
r 4.27531 0 12 tcp 1040 ------- 0 4.6 12.0 444 10785
r 4.276142 0 12 tcp 1040 ------- 0 4.6 12.0 445 10786
r 4.276974 0 12 tcp 1040 ------- 0 4.6 12.0 446 10787
r 4.277806 0 12 tcp 1040 ------- 0 4.6 12.0 447 10788
r 4.278638 0 12 tcp 1040 ------- 0 4.6 12.0 448 10789
r 4.27947 0 12 tcp 1040 ------- 0 4.6 12.0 449 10790
r 4.280302 0 12 tcp 1040 ------- 0 4.6 12.0 450 10791
r 4.281134 0 12 tcp 1040 ------- 0 4.6 12.0 451 10792
r 4.281966 0 12 tcp 1040 ------- 0 4.6 12.0 452 10793
r 4.282798 0 12 tcp 1040 ------- 0 4.6 12.0 453 10794
r 4.28363 0 12 tcp 1040 ------- 0 4.6 12.0 454 10795
r 4.284462 0 12 tcp 1040 ------- 0 4.6 12.0 455 10796
r 4.340206 0 12 tcp 1040 ------- 0 4.6 12.0 456 10974
r 4.341038 0 12 tcp 1040 ------- 0 4.6 12.0 458 10998
r 4.34187 0 12 tcp 1040 ------- 0 4.6 12.0 459 11000
r 4.342702 0 12 tcp 1040 ------- 0 4.6 12.0 461 11003
r 4.343534 0 12 tcp 1040 ------- 0 4.6 12.0 462 11005
r 4.344366 0 12 tcp 1040 ------- 0 4.6 12.0 463 11007
r 4.345198 0 12 tcp 1040 ------- 0 4.6 12.0 464 11009
r 4.34603 0 12 tcp 1040 ------- 0 4.6 12.0 465 11011
r 4.346862 0 12 tcp 1040 ------- 0 4.6 12.0 466 11013
r 4.347694 0 12 tcp 1040 ------- 0 4.6 12.0 467 11015
r 4.348526 0 12 tcp 1040 ------- 0 4.6 12.0 468 11017
r 4.349358 0 12 tcp 1040 ------- 0 4.6 12.0 469 11019
r 4.397614 0 12 tcp 1040 ------- 0 4.6 12.0 470 11198
r 4.399278 0 12 tcp 1040 ------- 0 4.6 12.0 471 11200
r 4.40011 0 12 tcp 1040 ------- 0 4.6 12.0 472 11201
r 4.400942 0 12 tcp 1040 ---A--- 0 4.6 12.0 457 11202
r 4.444206 0 12 tcp 1040 ------- 0 4.6 12.0 460 11359
r 4.445038 0 12 tcp 1040 ------- 0 4.6 12.0 461 11360
r 4.497454 0 12 tcp 1040 ------- 0 4.6 12.0 473 11509
r 4.498286 0 12 tcp 1040 ------- 0 4.6 12.0 474 11510
r 4.499118 0 12 tcp 1040 ------- 0 4.6 12.0 475 11511
r 4.49995 0 12 tcp 1040 ------- 0 4.6 12.0 476 11513
r 4.56235 0 12 tcp 1040 ------- 0 4.6 12.0 477 11691
r 4.563182 0 12 tcp 1040 ------- 0 4.6 12.0 478 11693
r 4.564014 0 12 tcp 1040 ------- 0 4.6 12.0 480 11696
r 4.564846 0 12 tcp 1040 ------- 0 4.6 12.0 482 11699
r 4.628078 0 12 tcp 1040 ------- 0 4.6 12.0 484 11900
r 4.62891 0 12 tcp 1040 ------- 0 4.6 12.0 485 11901
r 4.629742 0 12 tcp 1040 ------- 0 4.6 12.0 486 11902
r 4.630574 0 12 tcp 1040 ------- 0 4.6 12.0 487 11903
r 4.690478 0 12 tcp 1040 ---A--- 0 4.6 12.0 479 12112
r 4.750382 0 12 tcp 1040 ------- 0 4.6 12.0 481 12311
r 4.751214 0 12 tcp 1040 ------- 0 4.6 12.0 482 12312
r 4.808622 0 12 tcp 1040 ------- 0 4.6 12.0 483 12486
r 4.809454 0 12 tcp 1040 ------- 0 4.6 12.0 484 12487
r 4.810286 0 12 tcp 1040 ------- 0 4.6 12.0 485 12488
r 4.811118 0 12 tcp 1040 ------- 0 4.6 12.0 486 12489
r 4.87435 0 12 tcp 1040 ------- 0 4.6 12.0 488 12673
r 4.875182 0 12 tcp 1040 ------- 0 4.6 12.0 489 12674
r 4.876014 0 12 tcp 1040 ------- 0 4.6 12.0 490 12675
r 4.876846 0 12 tcp 1040 ------- 0 4.6 12.0 492 12679
r 4.939246 0 12 tcp 1040 ------- 0 4.6 12.0 493 12916
r 4.940078 0 12 tcp 1040 ------- 0 4.6 12.0 494 12917
r 4.94091 0 12 tcp 1040 ------- 0 4.6 12.0 495 12918
r 4.987502 0 12 tcp 1040 ------- 0 4.6 12.0 496 13079
r 4.988334 0 12 tcp 1040 ---A--- 0 4.6 12.0 491 13080
r 5.021022 0 12 tcp 1040 ------- 0 4.6 12.0 497 13221
r 5.021854 0 12 tcp 1040 ------- 0 4.6 12.0 498 13222
r 5.06179 0 12 tcp 1040 ------- 0 4.6 12.0 499 13320
r 5.062622 0 12 tcp 1040 ------- 0 4.6 12.0 500 13321
r 5.112542 0 12 tcp 1040 ------- 0 4.6 12.0 501 13469
r 5.113374 0 12 tcp 1040 ------- 0 4.6 12.0 502 13470
r 5.114206 0 12 tcp 1040 ------- 0 4.6 12.0 503 13487
r 5.171614 0 12 tcp 1040 ------- 0 4.6 12.0 504 13641
r 5.172446 0 12 tcp 1040 ------- 0 4.6 12.0 505 13643
r 5.173278 0 12 tcp 1040 ------- 0 4.6 12.0 506 13644
r 5.17411 0 12 tcp 1040 ------- 0 4.6 12.0 507 13646
r 5.23651 0 12 tcp 1040 ------- 0 4.6 12.0 508 13844
r 5.237342 0 12 tcp 1040 ------- 0 4.6 12.0 509 13845
r 5.238174 0 12 tcp 1040 ------- 0 4.6 12.0 510 13846
r 5.239006 0 12 tcp 1040 ------- 0 4.6 12.0 511 13847
r 5.239838 0 12 tcp 1040 ------- 0 4.6 12.0 512 13848
r 5.300574 0 12 tcp 1040 ------- 0 4.6 12.0 513 14034
r 5.301406 0 12 tcp 1040 ------- 0 4.6 12.0 514 14036
r 5.302238 0 12 tcp 1040 ------- 0 4.6 12.0 515 14038
r 5.30307 0 12 tcp 1040 ------- 0 4.6 12.0 516 14060
r 5.303902 0 12 tcp 1040 ------- 0 4.6 12.0 517 14062
r 5.304734 0 12 tcp 1040 ------- 0 4.6 12.0 518 14063
r 5.359646 0 12 tcp 1040 ------- 0 4.6 12.0 519 14244
r 5.360478 0 12 tcp 1040 ------- 0 4.6 12.0 520 14246
r 5.36131 0 12 tcp 1040 ------- 0 4.6 12.0 521 14248
r 5.362142 0 12 tcp 1040 ------- 0 4.6 12.0 522 14250
r 5.362974 0 12 tcp 1040 ------- 0 4.6 12.0 523 14267
r 5.363806 0 12 tcp 1040 ------- 0 4.6 12.0 524 14268
r 5.364638 0 12 tcp 1040 ------- 0 4.6 12.0 525 14269
r 5.41123 0 12 tcp 1040 ------- 0 4.6 12.0 526 14430
r 5.412062 0 12 tcp 1040 ------- 0 4.6 12.0 527 14431
r 5.412894 0 12 tcp 1040 ------- 0 4.6 12.0 528 14432
r 5.413726 0 12 tcp 1040 ------- 0 4.6 12.0 529 14433
r 5.414558 0 12 tcp 1040 ------- 0 4.6 12.0 530 14434
r 5.41539 0 12 tcp 1040 ------- 0 4.6 12.0 531 14435
r 5.416222 0 12 tcp 1040 ------- 0 4.6 12.0 532 14436
r 5.46531 0 12 tcp 1040 ------- 0 4.6 12.0 533 14599
r 5.466142 0 12 tcp 1040 ------- 0 4.6 12.0 534 14600
r 5.466974 0 12 tcp 1040 ------- 0 4.6 12.0 535 14601
r 5.467806 0 12 tcp 1040 ------- 0 4.6 12.0 536 14602
r 5.468638 0 12 tcp 1040 ------- 0 4.6 12.0 537 14603
r 5.46947 0 12 tcp 1040 ------- 0 4.6 12.0 538 14604
r 5.470302 0 12 tcp 1040 ------- 0 4.6 12.0 539 14605
r 5.471134 0 12 tcp 1040 ------- 0 4.6 12.0 540 14606
r 5.528542 0 12 tcp 1040 ------- 0 4.6 12.0 541 14779
r 5.530206 0 12 tcp 1040 ------- 0 4.6 12.0 542 14781
r 5.531038 0 12 tcp 1040 ------- 0 4.6 12.0 543 14782
r 5.53187 0 12 tcp 1040 ------- 0 4.6 12.0 544 14783
r 5.532702 0 12 tcp 1040 ------- 0 4.6 12.0 545 14784
r 5.533534 0 12 tcp 1040 ------- 0 4.6 12.0 546 14785
r 5.534366 0 12 tcp 1040 ------- 0 4.6 12.0 547 14786
r 5.535198 0 12 tcp 1040 ------- 0 4.6 12.0 548 14787
r 5.53603 0 12 tcp 1040 ------- 0 4.6 12.0 549 14788
r 5.59427 0 12 tcp 1040 ------- 0 4.6 12.0 550 14963
r 5.595934 0 12 tcp 1040 ------- 0 4.6 12.0 551 14965
r 5.596766 0 12 tcp 1040 ------- 0 4.6 12.0 552 14966