+ 0.1 6 5 tcp 40 ------- 1 6.0 1.0 0 0
- 0.1 6 5 tcp 40 ------- 1 6.0 1.0 0 0
r 0.100303 6 5 tcp 40 ------- 1 6.0 1.0 0 0
+ 0.100303 5 4 tcp 40 ------- 1 6.0 1.0 0 0
- 0.100303 5 4 tcp 40 ------- 1 6.0 1.0 0 0
r 0.100606 5 4 tcp 40 ------- 1 6.0 1.0 0 0
+ 0.100606 4 3 tcp 40 ------- 1 6.0 1.0 0 0
- 0.100606 4 3 tcp 40 ------- 1 6.0 1.0 0 0
r 0.101434 4 3 tcp 40 ------- 1 6.0 1.0 0 0
+ 0.101434 3 2 tcp 40 ------- 1 6.0 1.0 0 0
- 0.101434 3 2 tcp 40 ------- 1 6.0 1.0 0 0
r 0.101666 3 2 tcp 40 ------- 1 6.0 1.0 0 0
+ 0.101666 2 1 tcp 40 ------- 1 6.0 1.0 0 0
- 0.101666 2 1 tcp 40 ------- 1 6.0 1.0 0 0
r 0.111698 2 1 tcp 40 ------- 1 6.0 1.0 0 0
+ 0.111698 1 2 ack 40 ------- 1 1.0 6.0 0 1
- 0.111698 1 2 ack 40 ------- 1 1.0 6.0 0 1
r 0.12173 1 2 ack 40 ------- 1 1.0 6.0 0 1
+ 0.12173 2 3 ack 40 ------- 1 1.0 6.0 0 1
- 0.12173 2 3 ack 40 ------- 1 1.0 6.0 0 1
r 0.121962 2 3 ack 40 ------- 1 1.0 6.0 0 1
+ 0.121962 3 4 ack 40 ------- 1 1.0 6.0 0 1
- 0.121962 3 4 ack 40 ------- 1 1.0 6.0 0 1
r 0.125362 3 4 ack 40 ------- 1 1.0 6.0 0 1
+ 0.125362 4 5 ack 40 ------- 1 1.0 6.0 0 1
- 0.125362 4 5 ack 40 ------- 1 1.0 6.0 0 1
r 0.125665 4 5 ack 40 ------- 1 1.0 6.0 0 1
+ 0.125665 5 6 ack 40 ------- 1 1.0 6.0 0 1
- 0.125665 5 6 ack 40 ------- 1 1.0 6.0 0 1
r 0.125968 5 6 ack 40 ------- 1 1.0 6.0 0 1
+ 0.125968 6 5 tcp 1040 ------- 1 6.0 1.0 1 2
- 0.125968 6 5 tcp 1040 ------- 1 6.0 1.0 1 2
+ 0.125968 6 5 tcp 1040 ------- 1 6.0 1.0 2 3
- 0.126051 6 5 tcp 1040 ------- 1 6.0 1.0 2 3
r 0.126351 6 5 tcp 1040 ------- 1 6.0 1.0 1 2
+ 0.126351 5 4 tcp 1040 ------- 1 6.0 1.0 1 2
- 0.126351 5 4 tcp 1040 ------- 1 6.0 1.0 1 2
r 0.126435 6 5 tcp 1040 ------- 1 6.0 1.0 2 3
+ 0.126435 5 4 tcp 1040 ------- 1 6.0 1.0 2 3
- 0.126435 5 4 tcp 1040 ------- 1 6.0 1.0 2 3
r 0.126735 5 4 tcp 1040 ------- 1 6.0 1.0 1 2
+ 0.126735 4 3 tcp 1040 ------- 1 6.0 1.0 1 2
- 0.126735 4 3 tcp 1040 ------- 1 6.0 1.0 1 2
r 0.126818 5 4 tcp 1040 ------- 1 6.0 1.0 2 3
+ 0.126818 4 3 tcp 1040 ------- 1 6.0 1.0 2 3
- 0.143048 4 3 tcp 1040 ------- 1 6.0 1.0 2 3
r 0.143248 4 3 tcp 1040 ------- 1 6.0 1.0 1 2
+ 0.143248 3 2 tcp 1040 ------- 1 6.0 1.0 1 2
- 0.143248 3 2 tcp 1040 ------- 1 6.0 1.0 1 2
r 0.14428 3 2 tcp 1040 ------- 1 6.0 1.0 1 2
+ 0.14428 2 1 tcp 1040 ------- 1 6.0 1.0 1 2
- 0.14428 2 1 tcp 1040 ------- 1 6.0 1.0 1 2
r 0.155112 2 1 tcp 1040 ------- 1 6.0 1.0 1 2
+ 0.155112 1 2 ack 40 ------- 1 1.0 6.0 1 4
- 0.155112 1 2 ack 40 ------- 1 1.0 6.0 1 4
r 0.159562 4 3 tcp 1040 ------- 1 6.0 1.0 2 3
+ 0.159562 3 2 tcp 1040 ------- 1 6.0 1.0 2 3
- 0.159562 3 2 tcp 1040 ------- 1 6.0 1.0 2 3
r 0.160594 3 2 tcp 1040 ------- 1 6.0 1.0 2 3
+ 0.160594 2 1 tcp 1040 ------- 1 6.0 1.0 2 3
- 0.160594 2 1 tcp 1040 ------- 1 6.0 1.0 2 3
r 0.165144 1 2 ack 40 ------- 1 1.0 6.0 1 4
+ 0.165144 2 3 ack 40 ------- 1 1.0 6.0 1 4
- 0.165144 2 3 ack 40 ------- 1 1.0 6.0 1 4
r 0.165376 2 3 ack 40 ------- 1 1.0 6.0 1 4
+ 0.165376 3 4 ack 40 ------- 1 1.0 6.0 1 4
- 0.165376 3 4 ack 40 ------- 1 1.0 6.0 1 4
r 0.168776 3 4 ack 40 ------- 1 1.0 6.0 1 4
+ 0.168776 4 5 ack 40 ------- 1 1.0 6.0 1 4
- 0.168776 4 5 ack 40 ------- 1 1.0 6.0 1 4
r 0.16908 4 5 ack 40 ------- 1 1.0 6.0 1 4
+ 0.16908 5 6 ack 40 ------- 1 1.0 6.0 1 4
- 0.16908 5 6 ack 40 ------- 1 1.0 6.0 1 4
r 0.169383 5 6 ack 40 ------- 1 1.0 6.0 1 4
+ 0.169383 6 5 tcp 1040 ------- 1 6.0 1.0 3 5
- 0.169383 6 5 tcp 1040 ------- 1 6.0 1.0 3 5
+ 0.169383 6 5 tcp 1040 ------- 1 6.0 1.0 4 6
- 0.169466 6 5 tcp 1040 ------- 1 6.0 1.0 4 6
r 0.169766 6 5 tcp 1040 ------- 1 6.0 1.0 3 5
+ 0.169766 5 4 tcp 1040 ------- 1 6.0 1.0 3 5
- 0.169766 5 4 tcp 1040 ------- 1 6.0 1.0 3 5
r 0.169849 6 5 tcp 1040 ------- 1 6.0 1.0 4 6
+ 0.169849 5 4 tcp 1040 ------- 1 6.0 1.0 4 6
- 0.169849 5 4 tcp 1040 ------- 1 6.0 1.0 4 6
r 0.170149 5 4 tcp 1040 ------- 1 6.0 1.0 3 5
+ 0.170149 4 3 tcp 1040 ------- 1 6.0 1.0 3 5
- 0.170149 4 3 tcp 1040 ------- 1 6.0 1.0 3 5
r 0.170232 5 4 tcp 1040 ------- 1 6.0 1.0 4 6
+ 0.170232 4 3 tcp 1040 ------- 1 6.0 1.0 4 6
r 0.171426 2 1 tcp 1040 ------- 1 6.0 1.0 2 3
+ 0.171426 1 2 ack 40 ------- 1 1.0 6.0 2 7
- 0.171426 1 2 ack 40 ------- 1 1.0 6.0 2 7
r 0.181458 1 2 ack 40 ------- 1 1.0 6.0 2 7
+ 0.181458 2 3 ack 40 ------- 1 1.0 6.0 2 7
- 0.181458 2 3 ack 40 ------- 1 1.0 6.0 2 7
r 0.18169 2 3 ack 40 ------- 1 1.0 6.0 2 7
+ 0.18169 3 4 ack 40 ------- 1 1.0 6.0 2 7
- 0.18169 3 4 ack 40 ------- 1 1.0 6.0 2 7
r 0.18509 3 4 ack 40 ------- 1 1.0 6.0 2 7
+ 0.18509 4 5 ack 40 ------- 1 1.0 6.0 2 7
- 0.18509 4 5 ack 40 ------- 1 1.0 6.0 2 7
r 0.185393 4 5 ack 40 ------- 1 1.0 6.0 2 7
+ 0.185393 5 6 ack 40 ------- 1 1.0 6.0 2 7
- 0.185393 5 6 ack 40 ------- 1 1.0 6.0 2 7
r 0.185697 5 6 ack 40 ------- 1 1.0 6.0 2 7
+ 0.185697 6 5 tcp 1040 ------- 1 6.0 1.0 5 8
- 0.185697 6 5 tcp 1040 ------- 1 6.0 1.0 5 8
+ 0.185697 6 5 tcp 1040 ------- 1 6.0 1.0 6 9
- 0.18578 6 5 tcp 1040 ------- 1 6.0 1.0 6 9
r 0.18608 6 5 tcp 1040 ------- 1 6.0 1.0 5 8
+ 0.18608 5 4 tcp 1040 ------- 1 6.0 1.0 5 8
- 0.18608 5 4 tcp 1040 ------- 1 6.0 1.0 5 8
r 0.186163 6 5 tcp 1040 ------- 1 6.0 1.0 6 9
+ 0.186163 5 4 tcp 1040 ------- 1 6.0 1.0 6 9
- 0.186163 5 4 tcp 1040 ------- 1 6.0 1.0 6 9
r 0.186463 5 4 tcp 1040 ------- 1 6.0 1.0 5 8
+ 0.186463 4 3 tcp 1040 ------- 1 6.0 1.0 5 8
- 0.186463 4 3 tcp 1040 ------- 1 6.0 1.0 4 6
r 0.186546 5 4 tcp 1040 ------- 1 6.0 1.0 6 9
+ 0.186546 4 3 tcp 1040 ------- 1 6.0 1.0 6 9
r 0.186663 4 3 tcp 1040 ------- 1 6.0 1.0 3 5
+ 0.186663 3 2 tcp 1040 ------- 1 6.0 1.0 3 5
- 0.186663 3 2 tcp 1040 ------- 1 6.0 1.0 3 5
r 0.187695 3 2 tcp 1040 ------- 1 6.0 1.0 3 5
+ 0.187695 2 1 tcp 1040 ------- 1 6.0 1.0 3 5
- 0.187695 2 1 tcp 1040 ------- 1 6.0 1.0 3 5
r 0.198527 2 1 tcp 1040 ------- 1 6.0 1.0 3 5
+ 0.198527 1 2 ack 40 ------- 1 1.0 6.0 3 10
- 0.198527 1 2 ack 40 ------- 1 1.0 6.0 3 10
- 0.202777 4 3 tcp 1040 ------- 1 6.0 1.0 5 8
r 0.202977 4 3 tcp 1040 ------- 1 6.0 1.0 4 6
+ 0.202977 3 2 tcp 1040 ------- 1 6.0 1.0 4 6
- 0.202977 3 2 tcp 1040 ------- 1 6.0 1.0 4 6
r 0.204009 3 2 tcp 1040 ------- 1 6.0 1.0 4 6
+ 0.204009 2 1 tcp 1040 ------- 1 6.0 1.0 4 6
- 0.204009 2 1 tcp 1040 ------- 1 6.0 1.0 4 6
r 0.208559 1 2 ack 40 ------- 1 1.0 6.0 3 10
+ 0.208559 2 3 ack 40 ------- 1 1.0 6.0 3 10
- 0.208559 2 3 ack 40 ------- 1 1.0 6.0 3 10
r 0.208791 2 3 ack 40 ------- 1 1.0 6.0 3 10
+ 0.208791 3 4 ack 40 ------- 1 1.0 6.0 3 10
- 0.208791 3 4 ack 40 ------- 1 1.0 6.0 3 10
r 0.212191 3 4 ack 40 ------- 1 1.0 6.0 3 10
+ 0.212191 4 5 ack 40 ------- 1 1.0 6.0 3 10
- 0.212191 4 5 ack 40 ------- 1 1.0 6.0 3 10
r 0.212494 4 5 ack 40 ------- 1 1.0 6.0 3 10
+ 0.212494 5 6 ack 40 ------- 1 1.0 6.0 3 10
- 0.212494 5 6 ack 40 ------- 1 1.0 6.0 3 10
r 0.212797 5 6 ack 40 ------- 1 1.0 6.0 3 10
+ 0.212797 6 5 tcp 1040 ------- 1 6.0 1.0 7 11
- 0.212797 6 5 tcp 1040 ------- 1 6.0 1.0 7 11
+ 0.212797 6 5 tcp 1040 ------- 1 6.0 1.0 8 12
- 0.212881 6 5 tcp 1040 ------- 1 6.0 1.0 8 12
r 0.213181 6 5 tcp 1040 ------- 1 6.0 1.0 7 11
+ 0.213181 5 4 tcp 1040 ------- 1 6.0 1.0 7 11
- 0.213181 5 4 tcp 1040 ------- 1 6.0 1.0 7 11
r 0.213264 6 5 tcp 1040 ------- 1 6.0 1.0 8 12
+ 0.213264 5 4 tcp 1040 ------- 1 6.0 1.0 8 12
- 0.213264 5 4 tcp 1040 ------- 1 6.0 1.0 8 12
r 0.213564 5 4 tcp 1040 ------- 1 6.0 1.0 7 11
+ 0.213564 4 3 tcp 1040 ------- 1 6.0 1.0 7 11
r 0.213647 5 4 tcp 1040 ------- 1 6.0 1.0 8 12
+ 0.213647 4 3 tcp 1040 ------- 1 6.0 1.0 8 12
r 0.214841 2 1 tcp 1040 ------- 1 6.0 1.0 4 6
+ 0.214841 1 2 ack 40 ------- 1 1.0 6.0 4 13
- 0.214841 1 2 ack 40 ------- 1 1.0 6.0 4 13
- 0.21909 4 3 tcp 1040 ------- 1 6.0 1.0 6 9
r 0.21929 4 3 tcp 1040 ------- 1 6.0 1.0 5 8
+ 0.21929 3 2 tcp 1040 ------- 1 6.0 1.0 5 8
- 0.21929 3 2 tcp 1040 ------- 1 6.0 1.0 5 8
r 0.220322 3 2 tcp 1040 ------- 1 6.0 1.0 5 8
+ 0.220322 2 1 tcp 1040 ------- 1 6.0 1.0 5 8
- 0.220322 2 1 tcp 1040 ------- 1 6.0 1.0 5 8
r 0.224873 1 2 ack 40 ------- 1 1.0 6.0 4 13
+ 0.224873 2 3 ack 40 ------- 1 1.0 6.0 4 13
- 0.224873 2 3 ack 40 ------- 1 1.0 6.0 4 13
r 0.225105 2 3 ack 40 ------- 1 1.0 6.0 4 13
+ 0.225105 3 4 ack 40 ------- 1 1.0 6.0 4 13
- 0.225105 3 4 ack 40 ------- 1 1.0 6.0 4 13
r 0.228505 3 4 ack 40 ------- 1 1.0 6.0 4 13
+ 0.228505 4 5 ack 40 ------- 1 1.0 6.0 4 13
- 0.228505 4 5 ack 40 ------- 1 1.0 6.0 4 13
r 0.228808 4 5 ack 40 ------- 1 1.0 6.0 4 13
+ 0.228808 5 6 ack 40 ------- 1 1.0 6.0 4 13
- 0.228808 5 6 ack 40 ------- 1 1.0 6.0 4 13
r 0.229111 5 6 ack 40 ------- 1 1.0 6.0 4 13
+ 0.229111 6 5 tcp 1040 ------- 1 6.0 1.0 9 14
- 0.229111 6 5 tcp 1040 ------- 1 6.0 1.0 9 14
+ 0.229111 6 5 tcp 1040 ------- 1 6.0 1.0 10 15
- 0.229194 6 5 tcp 1040 ------- 1 6.0 1.0 10 15
r 0.229494 6 5 tcp 1040 ------- 1 6.0 1.0 9 14
+ 0.229494 5 4 tcp 1040 ------- 1 6.0 1.0 9 14
- 0.229494 5 4 tcp 1040 ------- 1 6.0 1.0 9 14
r 0.229577 6 5 tcp 1040 ------- 1 6.0 1.0 10 15
+ 0.229577 5 4 tcp 1040 ------- 1 6.0 1.0 10 15
- 0.229577 5 4 tcp 1040 ------- 1 6.0 1.0 10 15
r 0.229877 5 4 tcp 1040 ------- 1 6.0 1.0 9 14
+ 0.229877 4 3 tcp 1040 ------- 1 6.0 1.0 9 14
r 0.229961 5 4 tcp 1040 ------- 1 6.0 1.0 10 15
+ 0.229961 4 3 tcp 1040 ------- 1 6.0 1.0 10 15
r 0.231154 2 1 tcp 1040 ------- 1 6.0 1.0 5 8
+ 0.231154 1 2 ack 40 ------- 1 1.0 6.0 5 16
- 0.231154 1 2 ack 40 ------- 1 1.0 6.0 5 16
- 0.235404 4 3 tcp 1040 ------- 1 6.0 1.0 7 11
r 0.235604 4 3 tcp 1040 ------- 1 6.0 1.0 6 9
+ 0.235604 3 2 tcp 1040 ------- 1 6.0 1.0 6 9
- 0.235604 3 2 tcp 1040 ------- 1 6.0 1.0 6 9
r 0.236636 3 2 tcp 1040 ------- 1 6.0 1.0 6 9
+ 0.236636 2 1 tcp 1040 ------- 1 6.0 1.0 6 9
- 0.236636 2 1 tcp 1040 ------- 1 6.0 1.0 6 9
r 0.241186 1 2 ack 40 ------- 1 1.0 6.0 5 16
+ 0.241186 2 3 ack 40 ------- 1 1.0 6.0 5 16
- 0.241186 2 3 ack 40 ------- 1 1.0 6.0 5 16
r 0.241418 2 3 ack 40 ------- 1 1.0 6.0 5 16
+ 0.241418 3 4 ack 40 ------- 1 1.0 6.0 5 16
- 0.241418 3 4 ack 40 ------- 1 1.0 6.0 5 16
r 0.244818 3 4 ack 40 ------- 1 1.0 6.0 5 16
+ 0.244818 4 5 ack 40 ------- 1 1.0 6.0 5 16
- 0.244818 4 5 ack 40 ------- 1 1.0 6.0 5 16
r 0.245122 4 5 ack 40 ------- 1 1.0 6.0 5 16
+ 0.245122 5 6 ack 40 ------- 1 1.0 6.0 5 16
- 0.245122 5 6 ack 40 ------- 1 1.0 6.0 5 16
r 0.245425 5 6 ack 40 ------- 1 1.0 6.0 5 16
+ 0.245425 6 5 tcp 1040 ------- 1 6.0 1.0 11 17
- 0.245425 6 5 tcp 1040 ------- 1 6.0 1.0 11 17
+ 0.245425 6 5 tcp 1040 ------- 1 6.0 1.0 12 18
- 0.245508 6 5 tcp 1040 ------- 1 6.0 1.0 12 18
r 0.245808 6 5 tcp 1040 ------- 1 6.0 1.0 11 17
+ 0.245808 5 4 tcp 1040 ------- 1 6.0 1.0 11 17
- 0.245808 5 4 tcp 1040 ------- 1 6.0 1.0 11 17
r 0.245891 6 5 tcp 1040 ------- 1 6.0 1.0 12 18
+ 0.245891 5 4 tcp 1040 ------- 1 6.0 1.0 12 18
- 0.245891 5 4 tcp 1040 ------- 1 6.0 1.0 12 18
r 0.246191 5 4 tcp 1040 ------- 1 6.0 1.0 11 17
+ 0.246191 4 3 tcp 1040 ------- 1 6.0 1.0 11 17
r 0.246274 5 4 tcp 1040 ------- 1 6.0 1.0 12 18
+ 0.246274 4 3 tcp 1040 ------- 1 6.0 1.0 12 18
r 0.247468 2 1 tcp 1040 ------- 1 6.0 1.0 6 9
+ 0.247468 1 2 ack 40 ------- 1 1.0 6.0 6 19
- 0.247468 1 2 ack 40 ------- 1 1.0 6.0 6 19
- 0.251718 4 3 tcp 1040 ------- 1 6.0 1.0 8 12
r 0.251918 4 3 tcp 1040 ------- 1 6.0 1.0 7 11
+ 0.251918 3 2 tcp 1040 ------- 1 6.0 1.0 7 11
- 0.251918 3 2 tcp 1040 ------- 1 6.0 1.0 7 11
r 0.25295 3 2 tcp 1040 ------- 1 6.0 1.0 7 11
+ 0.25295 2 1 tcp 1040 ------- 1 6.0 1.0 7 11
- 0.25295 2 1 tcp 1040 ------- 1 6.0 1.0 7 11
r 0.2575 1 2 ack 40 ------- 1 1.0 6.0 6 19
+ 0.2575 2 3 ack 40 ------- 1 1.0 6.0 6 19
- 0.2575 2 3 ack 40 ------- 1 1.0 6.0 6 19
r 0.257732 2 3 ack 40 ------- 1 1.0 6.0 6 19
+ 0.257732 3 4 ack 40 ------- 1 1.0 6.0 6 19
- 0.257732 3 4 ack 40 ------- 1 1.0 6.0 6 19
r 0.261132 3 4 ack 40 ------- 1 1.0 6.0 6 19
+ 0.261132 4 5 ack 40 ------- 1 1.0 6.0 6 19
- 0.261132 4 5 ack 40 ------- 1 1.0 6.0 6 19
r 0.261435 4 5 ack 40 ------- 1 1.0 6.0 6 19
+ 0.261435 5 6 ack 40 ------- 1 1.0 6.0 6 19
- 0.261435 5 6 ack 40 ------- 1 1.0 6.0 6 19
r 0.261738 5 6 ack 40 ------- 1 1.0 6.0 6 19
+ 0.261738 6 5 tcp 1040 ------- 1 6.0 1.0 13 20
- 0.261738 6 5 tcp 1040 ------- 1 6.0 1.0 13 20
+ 0.261738 6 5 tcp 1040 ------- 1 6.0 1.0 14 21
- 0.261822 6 5 tcp 1040 ------- 1 6.0 1.0 14 21
r 0.262122 6 5 tcp 1040 ------- 1 6.0 1.0 13 20
+ 0.262122 5 4 tcp 1040 ------- 1 6.0 1.0 13 20
- 0.262122 5 4 tcp 1040 ------- 1 6.0 1.0 13 20
r 0.262205 6 5 tcp 1040 ------- 1 6.0 1.0 14 21
+ 0.262205 5 4 tcp 1040 ------- 1 6.0 1.0 14 21
- 0.262205 5 4 tcp 1040 ------- 1 6.0 1.0 14 21
r 0.262505 5 4 tcp 1040 ------- 1 6.0 1.0 13 20
+ 0.262505 4 3 tcp 1040 ------- 1 6.0 1.0 13 20
r 0.262588 5 4 tcp 1040 ------- 1 6.0 1.0 14 21
+ 0.262588 4 3 tcp 1040 ------- 1 6.0 1.0 14 21
r 0.263782 2 1 tcp 1040 ------- 1 6.0 1.0 7 11
+ 0.263782 1 2 ack 40 ------- 1 1.0 6.0 7 22
- 0.263782 1 2 ack 40 ------- 1 1.0 6.0 7 22
- 0.268032 4 3 tcp 1040 ------- 1 6.0 1.0 9 14
r 0.268232 4 3 tcp 1040 ------- 1 6.0 1.0 8 12
+ 0.268232 3 2 tcp 1040 ------- 1 6.0 1.0 8 12
- 0.268232 3 2 tcp 1040 ------- 1 6.0 1.0 8 12
r 0.269264 3 2 tcp 1040 ------- 1 6.0 1.0 8 12
+ 0.269264 2 1 tcp 1040 ------- 1 6.0 1.0 8 12
- 0.269264 2 1 tcp 1040 ------- 1 6.0 1.0 8 12
r 0.273814 1 2 ack 40 ------- 1 1.0 6.0 7 22
+ 0.273814 2 3 ack 40 ------- 1 1.0 6.0 7 22
- 0.273814 2 3 ack 40 ------- 1 1.0 6.0 7 22
r 0.274046 2 3 ack 40 ------- 1 1.0 6.0 7 22
+ 0.274046 3 4 ack 40 ------- 1 1.0 6.0 7 22
- 0.274046 3 4 ack 40 ------- 1 1.0 6.0 7 22
r 0.277446 3 4 ack 40 ------- 1 1.0 6.0 7 22
+ 0.277446 4 5 ack 40 ------- 1 1.0 6.0 7 22
- 0.277446 4 5 ack 40 ------- 1 1.0 6.0 7 22
r 0.277749 4 5 ack 40 ------- 1 1.0 6.0 7 22
+ 0.277749 5 6 ack 40 ------- 1 1.0 6.0 7 22
- 0.277749 5 6 ack 40 ------- 1 1.0 6.0 7 22
r 0.278052 5 6 ack 40 ------- 1 1.0 6.0 7 22
+ 0.278052 6 5 tcp 1040 ------- 1 6.0 1.0 15 23
- 0.278052 6 5 tcp 1040 ------- 1 6.0 1.0 15 23
+ 0.278052 6 5 tcp 1040 ------- 1 6.0 1.0 16 24
- 0.278135 6 5 tcp 1040 ------- 1 6.0 1.0 16 24
r 0.278435 6 5 tcp 1040 ------- 1 6.0 1.0 15 23
+ 0.278435 5 4 tcp 1040 ------- 1 6.0 1.0 15 23
- 0.278435 5 4 tcp 1040 ------- 1 6.0 1.0 15 23
r 0.278519 6 5 tcp 1040 ------- 1 6.0 1.0 16 24
+ 0.278519 5 4 tcp 1040 ------- 1 6.0 1.0 16 24
- 0.278519 5 4 tcp 1040 ------- 1 6.0 1.0 16 24
r 0.278819 5 4 tcp 1040 ------- 1 6.0 1.0 15 23
+ 0.278819 4 3 tcp 1040 ------- 1 6.0 1.0 15 23
r 0.278902 5 4 tcp 1040 ------- 1 6.0 1.0 16 24
+ 0.278902 4 3 tcp 1040 ------- 1 6.0 1.0 16 24
r 0.280096 2 1 tcp 1040 ------- 1 6.0 1.0 8 12
+ 0.280096 1 2 ack 40 ------- 1 1.0 6.0 8 25
- 0.280096 1 2 ack 40 ------- 1 1.0 6.0 8 25
- 0.284345 4 3 tcp 1040 ------- 1 6.0 1.0 10 15
r 0.284545 4 3 tcp 1040 ------- 1 6.0 1.0 9 14
+ 0.284545 3 2 tcp 1040 ------- 1 6.0 1.0 9 14
- 0.284545 3 2 tcp 1040 ------- 1 6.0 1.0 9 14
r 0.285577 3 2 tcp 1040 ------- 1 6.0 1.0 9 14
+ 0.285577 2 1 tcp 1040 ------- 1 6.0 1.0 9 14
- 0.285577 2 1 tcp 1040 ------- 1 6.0 1.0 9 14
r 0.290128 1 2 ack 40 ------- 1 1.0 6.0 8 25
+ 0.290128 2 3 ack 40 ------- 1 1.0 6.0 8 25
- 0.290128 2 3 ack 40 ------- 1 1.0 6.0 8 25
r 0.29036 2 3 ack 40 ------- 1 1.0 6.0 8 25
+ 0.29036 3 4 ack 40 ------- 1 1.0 6.0 8 25
- 0.29036 3 4 ack 40 ------- 1 1.0 6.0 8 25
r 0.29376 3 4 ack 40 ------- 1 1.0 6.0 8 25
+ 0.29376 4 5 ack 40 ------- 1 1.0 6.0 8 25
- 0.29376 4 5 ack 40 ------- 1 1.0 6.0 8 25
r 0.294063 4 5 ack 40 ------- 1 1.0 6.0 8 25
+ 0.294063 5 6 ack 40 ------- 1 1.0 6.0 8 25
- 0.294063 5 6 ack 40 ------- 1 1.0 6.0 8 25
r 0.294366 5 6 ack 40 ------- 1 1.0 6.0 8 25
+ 0.294366 6 5 tcp 1040 ------- 1 6.0 1.0 17 26
- 0.294366 6 5 tcp 1040 ------- 1 6.0 1.0 17 26
+ 0.294366 6 5 tcp 1040 ------- 1 6.0 1.0 18 27
- 0.294449 6 5 tcp 1040 ------- 1 6.0 1.0 18 27
r 0.294749 6 5 tcp 1040 ------- 1 6.0 1.0 17 26
+ 0.294749 5 4 tcp 1040 ------- 1 6.0 1.0 17 26
- 0.294749 5 4 tcp 1040 ------- 1 6.0 1.0 17 26
r 0.294832 6 5 tcp 1040 ------- 1 6.0 1.0 18 27
+ 0.294832 5 4 tcp 1040 ------- 1 6.0 1.0 18 27
- 0.294832 5 4 tcp 1040 ------- 1 6.0 1.0 18 27
r 0.295132 5 4 tcp 1040 ------- 1 6.0 1.0 17 26
+ 0.295132 4 3 tcp 1040 ------- 1 6.0 1.0 17 26
r 0.295216 5 4 tcp 1040 ------- 1 6.0 1.0 18 27
+ 0.295216 4 3 tcp 1040 ------- 1 6.0 1.0 18 27
r 0.296409 2 1 tcp 1040 ------- 1 6.0 1.0 9 14
+ 0.296409 1 2 ack 40 ------- 1 1.0 6.0 9 28
- 0.296409 1 2 ack 40 ------- 1 1.0 6.0 9 28
- 0.300659 4 3 tcp 1040 ------- 1 6.0 1.0 11 17
r 0.300859 4 3 tcp 1040 ------- 1 6.0 1.0 10 15
+ 0.300859 3 2 tcp 1040 ------- 1 6.0 1.0 10 15
- 0.300859 3 2 tcp 1040 ------- 1 6.0 1.0 10 15
r 0.301891 3 2 tcp 1040 ------- 1 6.0 1.0 10 15
+ 0.301891 2 1 tcp 1040 ------- 1 6.0 1.0 10 15
- 0.301891 2 1 tcp 1040 ------- 1 6.0 1.0 10 15
r 0.306441 1 2 ack 40 ------- 1 1.0 6.0 9 28
+ 0.306441 2 3 ack 40 ------- 1 1.0 6.0 9 28
- 0.306441 2 3 ack 40 ------- 1 1.0 6.0 9 28
r 0.306673 2 3 ack 40 ------- 1 1.0 6.0 9 28
+ 0.306673 3 4 ack 40 ------- 1 1.0 6.0 9 28
- 0.306673 3 4 ack 40 ------- 1 1.0 6.0 9 28
r 0.310073 3 4 ack 40 ------- 1 1.0 6.0 9 28
+ 0.310073 4 5 ack 40 ------- 1 1.0 6.0 9 28
- 0.310073 4 5 ack 40 ------- 1 1.0 6.0 9 28
r 0.310376 4 5 ack 40 ------- 1 1.0 6.0 9 28
+ 0.310376 5 6 ack 40 ------- 1 1.0 6.0 9 28
- 0.310376 5 6 ack 40 ------- 1 1.0 6.0 9 28
r 0.31068 5 6 ack 40 ------- 1 1.0 6.0 9 28
+ 0.31068 6 5 tcp 1040 ------- 1 6.0 1.0 19 29
- 0.31068 6 5 tcp 1040 ------- 1 6.0 1.0 19 29
+ 0.31068 6 5 tcp 1040 ------- 1 6.0 1.0 20 30
- 0.310763 6 5 tcp 1040 ------- 1 6.0 1.0 20 30
r 0.311063 6 5 tcp 1040 ------- 1 6.0 1.0 19 29
+ 0.311063 5 4 tcp 1040 ------- 1 6.0 1.0 19 29
- 0.311063 5 4 tcp 1040 ------- 1 6.0 1.0 19 29
r 0.311146 6 5 tcp 1040 ------- 1 6.0 1.0 20 30
+ 0.311146 5 4 tcp 1040 ------- 1 6.0 1.0 20 30
- 0.311146 5 4 tcp 1040 ------- 1 6.0 1.0 20 30
r 0.311446 5 4 tcp 1040 ------- 1 6.0 1.0 19 29
+ 0.311446 4 3 tcp 1040 ------- 1 6.0 1.0 19 29
r 0.311529 5 4 tcp 1040 ------- 1 6.0 1.0 20 30
+ 0.311529 4 3 tcp 1040 ------- 1 6.0 1.0 20 30
r 0.312723 2 1 tcp 1040 ------- 1 6.0 1.0 10 15
+ 0.312723 1 2 ack 40 ------- 1 1.0 6.0 10 31
- 0.312723 1 2 ack 40 ------- 1 1.0 6.0 10 31
- 0.316973 4 3 tcp 1040 ------- 1 6.0 1.0 12 18
r 0.317173 4 3 tcp 1040 ------- 1 6.0 1.0 11 17
+ 0.317173 3 2 tcp 1040 ------- 1 6.0 1.0 11 17
- 0.317173 3 2 tcp 1040 ------- 1 6.0 1.0 11 17
r 0.318205 3 2 tcp 1040 ------- 1 6.0 1.0 11 17
+ 0.318205 2 1 tcp 1040 ------- 1 6.0 1.0 11 17
- 0.318205 2 1 tcp 1040 ------- 1 6.0 1.0 11 17
r 0.322755 1 2 ack 40 ------- 1 1.0 6.0 10 31
+ 0.322755 2 3 ack 40 ------- 1 1.0 6.0 10 31
- 0.322755 2 3 ack 40 ------- 1 1.0 6.0 10 31
r 0.322987 2 3 ack 40 ------- 1 1.0 6.0 10 31
+ 0.322987 3 4 ack 40 ------- 1 1.0 6.0 10 31
- 0.322987 3 4 ack 40 ------- 1 1.0 6.0 10 31
r 0.326387 3 4 ack 40 ------- 1 1.0 6.0 10 31
+ 0.326387 4 5 ack 40 ------- 1 1.0 6.0 10 31
- 0.326387 4 5 ack 40 ------- 1 1.0 6.0 10 31
r 0.32669 4 5 ack 40 ------- 1 1.0 6.0 10 31
+ 0.32669 5 6 ack 40 ------- 1 1.0 6.0 10 31
- 0.32669 5 6 ack 40 ------- 1 1.0 6.0 10 31
r 0.326993 5 6 ack 40 ------- 1 1.0 6.0 10 31
+ 0.326993 6 5 tcp 1040 ------- 1 6.0 1.0 21 32
- 0.326993 6 5 tcp 1040 ------- 1 6.0 1.0 21 32
+ 0.326993 6 5 tcp 1040 ------- 1 6.0 1.0 22 33
- 0.327077 6 5 tcp 1040 ------- 1 6.0 1.0 22 33
r 0.327377 6 5 tcp 1040 ------- 1 6.0 1.0 21 32
+ 0.327377 5 4 tcp 1040 ------- 1 6.0 1.0 21 32
- 0.327377 5 4 tcp 1040 ------- 1 6.0 1.0 21 32
r 0.32746 6 5 tcp 1040 ------- 1 6.0 1.0 22 33
+ 0.32746 5 4 tcp 1040 ------- 1 6.0 1.0 22 33
- 0.32746 5 4 tcp 1040 ------- 1 6.0 1.0 22 33
r 0.32776 5 4 tcp 1040 ------- 1 6.0 1.0 21 32
+ 0.32776 4 3 tcp 1040 ------- 1 6.0 1.0 21 32
r 0.327843 5 4 tcp 1040 ------- 1 6.0 1.0 22 33
+ 0.327843 4 3 tcp 1040 ------- 1 6.0 1.0 22 33
r 0.329037 2 1 tcp 1040 ------- 1 6.0 1.0 11 17
+ 0.329037 1 2 ack 40 ------- 1 1.0 6.0 11 34
- 0.329037 1 2 ack 40 ------- 1 1.0 6.0 11 34
- 0.333286 4 3 tcp 1040 ------- 1 6.0 1.0 13 20
r 0.333486 4 3 tcp 1040 ------- 1 6.0 1.0 12 18
+ 0.333486 3 2 tcp 1040 ------- 1 6.0 1.0 12 18
- 0.333486 3 2 tcp 1040 ------- 1 6.0 1.0 12 18
r 0.334518 3 2 tcp 1040 ------- 1 6.0 1.0 12 18
+ 0.334518 2 1 tcp 1040 ------- 1 6.0 1.0 12 18
- 0.334518 2 1 tcp 1040 ------- 1 6.0 1.0 12 18
r 0.339069 1 2 ack 40 ------- 1 1.0 6.0 11 34
+ 0.339069 2 3 ack 40 ------- 1 1.0 6.0 11 34
- 0.339069 2 3 ack 40 ------- 1 1.0 6.0 11 34
r 0.339301 2 3 ack 40 ------- 1 1.0 6.0 11 34
+ 0.339301 3 4 ack 40 ------- 1 1.0 6.0 11 34
- 0.339301 3 4 ack 40 ------- 1 1.0 6.0 11 34
r 0.342701 3 4 ack 40 ------- 1 1.0 6.0 11 34
+ 0.342701 4 5 ack 40 ------- 1 1.0 6.0 11 34
- 0.342701 4 5 ack 40 ------- 1 1.0 6.0 11 34
r 0.343004 4 5 ack 40 ------- 1 1.0 6.0 11 34
+ 0.343004 5 6 ack 40 ------- 1 1.0 6.0 11 34
- 0.343004 5 6 ack 40 ------- 1 1.0 6.0 11 34
r 0.343307 5 6 ack 40 ------- 1 1.0 6.0 11 34
+ 0.343307 6 5 tcp 1040 ------- 1 6.0 1.0 23 35
- 0.343307 6 5 tcp 1040 ------- 1 6.0 1.0 23 35
+ 0.343307 6 5 tcp 1040 ------- 1 6.0 1.0 24 36
- 0.34339 6 5 tcp 1040 ------- 1 6.0 1.0 24 36
r 0.34369 6 5 tcp 1040 ------- 1 6.0 1.0 23 35
+ 0.34369 5 4 tcp 1040 ------- 1 6.0 1.0 23 35
- 0.34369 5 4 tcp 1040 ------- 1 6.0 1.0 23 35
r 0.343774 6 5 tcp 1040 ------- 1 6.0 1.0 24 36
+ 0.343774 5 4 tcp 1040 ------- 1 6.0 1.0 24 36
- 0.343774 5 4 tcp 1040 ------- 1 6.0 1.0 24 36
r 0.344074 5 4 tcp 1040 ------- 1 6.0 1.0 23 35
+ 0.344074 4 3 tcp 1040 ------- 1 6.0 1.0 23 35
r 0.344157 5 4 tcp 1040 ------- 1 6.0 1.0 24 36
+ 0.344157 4 3 tcp 1040 ------- 1 6.0 1.0 24 36
r 0.34535 2 1 tcp 1040 ------- 1 6.0 1.0 12 18
+ 0.34535 1 2 ack 40 ------- 1 1.0 6.0 12 37
- 0.34535 1 2 ack 40 ------- 1 1.0 6.0 12 37
- 0.3496 4 3 tcp 1040 ------- 1 6.0 1.0 14 21
r 0.3498 4 3 tcp 1040 ------- 1 6.0 1.0 13 20
+ 0.3498 3 2 tcp 1040 ------- 1 6.0 1.0 13 20
- 0.3498 3 2 tcp 1040 ------- 1 6.0 1.0 13 20
r 0.350832 3 2 tcp 1040 ------- 1 6.0 1.0 13 20
+ 0.350832 2 1 tcp 1040 ------- 1 6.0 1.0 13 20
- 0.350832 2 1 tcp 1040 ------- 1 6.0 1.0 13 20
r 0.355382 1 2 ack 40 ------- 1 1.0 6.0 12 37
+ 0.355382 2 3 ack 40 ------- 1 1.0 6.0 12 37
- 0.355382 2 3 ack 40 ------- 1 1.0 6.0 12 37
r 0.355614 2 3 ack 40 ------- 1 1.0 6.0 12 37
+ 0.355614 3 4 ack 40 ------- 1 1.0 6.0 12 37
- 0.355614 3 4 ack 40 ------- 1 1.0 6.0 12 37
r 0.359014 3 4 ack 40 ------- 1 1.0 6.0 12 37
+ 0.359014 4 5 ack 40 ------- 1 1.0 6.0 12 37
- 0.359014 4 5 ack 40 ------- 1 1.0 6.0 12 37
r 0.359318 4 5 ack 40 ------- 1 1.0 6.0 12 37
+ 0.359318 5 6 ack 40 ------- 1 1.0 6.0 12 37
- 0.359318 5 6 ack 40 ------- 1 1.0 6.0 12 37
r 0.359621 5 6 ack 40 ------- 1 1.0 6.0 12 37
+ 0.359621 6 5 tcp 1040 ------- 1 6.0 1.0 25 38
- 0.359621 6 5 tcp 1040 ------- 1 6.0 1.0 25 38
+ 0.359621 6 5 tcp 1040 ------- 1 6.0 1.0 26 39
- 0.359704 6 5 tcp 1040 ------- 1 6.0 1.0 26 39
r 0.360004 6 5 tcp 1040 ------- 1 6.0 1.0 25 38
+ 0.360004 5 4 tcp 1040 ------- 1 6.0 1.0 25 38
- 0.360004 5 4 tcp 1040 ------- 1 6.0 1.0 25 38
r 0.360087 6 5 tcp 1040 ------- 1 6.0 1.0 26 39
+ 0.360087 5 4 tcp 1040 ------- 1 6.0 1.0 26 39
- 0.360087 5 4 tcp 1040 ------- 1 6.0 1.0 26 39
r 0.360387 5 4 tcp 1040 ------- 1 6.0 1.0 25 38
+ 0.360387 4 3 tcp 1040 ------- 1 6.0 1.0 25 38
r 0.36047 5 4 tcp 1040 ------- 1 6.0 1.0 26 39
+ 0.36047 4 3 tcp 1040 ------- 1 6.0 1.0 26 39
r 0.361664 2 1 tcp 1040 ------- 1 6.0 1.0 13 20
+ 0.361664 1 2 ack 40 ------- 1 1.0 6.0 13 40
- 0.361664 1 2 ack 40 ------- 1 1.0 6.0 13 40
- 0.365914 4 3 tcp 1040 ------- 1 6.0 1.0 15 23
r 0.366114 4 3 tcp 1040 ------- 1 6.0 1.0 14 21
+ 0.366114 3 2 tcp 1040 ------- 1 6.0 1.0 14 21
- 0.366114 3 2 tcp 1040 ------- 1 6.0 1.0 14 21
r 0.367146 3 2 tcp 1040 ------- 1 6.0 1.0 14 21
+ 0.367146 2 1 tcp 1040 ------- 1 6.0 1.0 14 21
- 0.367146 2 1 tcp 1040 ------- 1 6.0 1.0 14 21
r 0.371696 1 2 ack 40 ------- 1 1.0 6.0 13 40
+ 0.371696 2 3 ack 40 ------- 1 1.0 6.0 13 40
- 0.371696 2 3 ack 40 ------- 1 1.0 6.0 13 40
r 0.371928 2 3 ack 40 ------- 1 1.0 6.0 13 40
+ 0.371928 3 4 ack 40 ------- 1 1.0 6.0 13 40
- 0.371928 3 4 ack 40 ------- 1 1.0 6.0 13 40
r 0.375328 3 4 ack 40 ------- 1 1.0 6.0 13 40
+ 0.375328 4 5 ack 40 ------- 1 1.0 6.0 13 40
- 0.375328 4 5 ack 40 ------- 1 1.0 6.0 13 40
r 0.375631 4 5 ack 40 ------- 1 1.0 6.0 13 40
+ 0.375631 5 6 ack 40 ------- 1 1.0 6.0 13 40
- 0.375631 5 6 ack 40 ------- 1 1.0 6.0 13 40
r 0.375935 5 6 ack 40 ------- 1 1.0 6.0 13 40
+ 0.375935 6 5 tcp 1040 ------- 1 6.0 1.0 27 41
- 0.375935 6 5 tcp 1040 ------- 1 6.0 1.0 27 41
+ 0.375935 6 5 tcp 1040 ------- 1 6.0 1.0 28 42
- 0.376018 6 5 tcp 1040 ------- 1 6.0 1.0 28 42
r 0.376318 6 5 tcp 1040 ------- 1 6.0 1.0 27 41
+ 0.376318 5 4 tcp 1040 ------- 1 6.0 1.0 27 41
- 0.376318 5 4 tcp 1040 ------- 1 6.0 1.0 27 41
r 0.376401 6 5 tcp 1040 ------- 1 6.0 1.0 28 42
+ 0.376401 5 4 tcp 1040 ------- 1 6.0 1.0 28 42
- 0.376401 5 4 tcp 1040 ------- 1 6.0 1.0 28 42
r 0.376701 5 4 tcp 1040 ------- 1 6.0 1.0 27 41
+ 0.376701 4 3 tcp 1040 ------- 1 6.0 1.0 27 41
r 0.376784 5 4 tcp 1040 ------- 1 6.0 1.0 28 42
+ 0.376784 4 3 tcp 1040 ------- 1 6.0 1.0 28 42
r 0.377978 2 1 tcp 1040 ------- 1 6.0 1.0 14 21
+ 0.377978 1 2 ack 40 ------- 1 1.0 6.0 14 43
- 0.377978 1 2 ack 40 ------- 1 1.0 6.0 14 43
- 0.382228 4 3 tcp 1040 ------- 1 6.0 1.0 16 24
r 0.382428 4 3 tcp 1040 ------- 1 6.0 1.0 15 23
+ 0.382428 3 2 tcp 1040 ------- 1 6.0 1.0 15 23
- 0.382428 3 2 tcp 1040 ------- 1 6.0 1.0 15 23
r 0.38346 3 2 tcp 1040 ------- 1 6.0 1.0 15 23
+ 0.38346 2 1 tcp 1040 ------- 1 6.0 1.0 15 23
- 0.38346 2 1 tcp 1040 ------- 1 6.0 1.0 15 23
r 0.38801 1 2 ack 40 ------- 1 1.0 6.0 14 43
+ 0.38801 2 3 ack 40 ------- 1 1.0 6.0 14 43
- 0.38801 2 3 ack 40 ------- 1 1.0 6.0 14 43
r 0.388242 2 3 ack 40 ------- 1 1.0 6.0 14 43
+ 0.388242 3 4 ack 40 ------- 1 1.0 6.0 14 43
- 0.388242 3 4 ack 40 ------- 1 1.0 6.0 14 43
r 0.391642 3 4 ack 40 ------- 1 1.0 6.0 14 43
+ 0.391642 4 5 ack 40 ------- 1 1.0 6.0 14 43
- 0.391642 4 5 ack 40 ------- 1 1.0 6.0 14 43
r 0.391945 4 5 ack 40 ------- 1 1.0 6.0 14 43
+ 0.391945 5 6 ack 40 ------- 1 1.0 6.0 14 43
- 0.391945 5 6 ack 40 ------- 1 1.0 6.0 14 43
r 0.392248 5 6 ack 40 ------- 1 1.0 6.0 14 43
+ 0.392248 6 5 tcp 1040 ------- 1 6.0 1.0 29 44
- 0.392248 6 5 tcp 1040 ------- 1 6.0 1.0 29 44
+ 0.392248 6 5 tcp 1040 ------- 1 6.0 1.0 30 45
- 0.392331 6 5 tcp 1040 ------- 1 6.0 1.0 30 45
r 0.392631 6 5 tcp 1040 ------- 1 6.0 1.0 29 44
+ 0.392631 5 4 tcp 1040 ------- 1 6.0 1.0 29 44
- 0.392631 5 4 tcp 1040 ------- 1 6.0 1.0 29 44
r 0.392715 6 5 tcp 1040 ------- 1 6.0 1.0 30 45
+ 0.392715 5 4 tcp 1040 ------- 1 6.0 1.0 30 45
- 0.392715 5 4 tcp 1040 ------- 1 6.0 1.0 30 45
r 0.393015 5 4 tcp 1040 ------- 1 6.0 1.0 29 44
+ 0.393015 4 3 tcp 1040 ------- 1 6.0 1.0 29 44
r 0.393098 5 4 tcp 1040 ------- 1 6.0 1.0 30 45
+ 0.393098 4 3 tcp 1040 ------- 1 6.0 1.0 30 45
r 0.394292 2 1 tcp 1040 ------- 1 6.0 1.0 15 23
+ 0.394292 1 2 ack 40 ------- 1 1.0 6.0 15 46
- 0.394292 1 2 ack 40 ------- 1 1.0 6.0 15 46
- 0.398541 4 3 tcp 1040 ------- 1 6.0 1.0 17 26
r 0.398741 4 3 tcp 1040 ------- 1 6.0 1.0 16 24
+ 0.398741 3 2 tcp 1040 ------- 1 6.0 1.0 16 24
- 0.398741 3 2 tcp 1040 ------- 1 6.0 1.0 16 24
r 0.399773 3 2 tcp 1040 ------- 1 6.0 1.0 16 24
+ 0.399773 2 1 tcp 1040 ------- 1 6.0 1.0 16 24
- 0.399773 2 1 tcp 1040 ------- 1 6.0 1.0 16 24
r 0.404324 1 2 ack 40 ------- 1 1.0 6.0 15 46
+ 0.404324 2 3 ack 40 ------- 1 1.0 6.0 15 46
- 0.404324 2 3 ack 40 ------- 1 1.0 6.0 15 46
r 0.404556 2 3 ack 40 ------- 1 1.0 6.0 15 46
+ 0.404556 3 4 ack 40 ------- 1 1.0 6.0 15 46
- 0.404556 3 4 ack 40 ------- 1 1.0 6.0 15 46
r 0.407956 3 4 ack 40 ------- 1 1.0 6.0 15 46
+ 0.407956 4 5 ack 40 ------- 1 1.0 6.0 15 46
- 0.407956 4 5 ack 40 ------- 1 1.0 6.0 15 46
r 0.408259 4 5 ack 40 ------- 1 1.0 6.0 15 46
+ 0.408259 5 6 ack 40 ------- 1 1.0 6.0 15 46
- 0.408259 5 6 ack 40 ------- 1 1.0 6.0 15 46
r 0.408562 5 6 ack 40 ------- 1 1.0 6.0 15 46
+ 0.408562 6 5 tcp 1040 ------- 1 6.0 1.0 31 47
- 0.408562 6 5 tcp 1040 ------- 1 6.0 1.0 31 47
+ 0.408562 6 5 tcp 1040 ------- 1 6.0 1.0 32 48
- 0.408645 6 5 tcp 1040 ------- 1 6.0 1.0 32 48
r 0.408945 6 5 tcp 1040 ------- 1 6.0 1.0 31 47
+ 0.408945 5 4 tcp 1040 ------- 1 6.0 1.0 31 47
- 0.408945 5 4 tcp 1040 ------- 1 6.0 1.0 31 47
r 0.409028 6 5 tcp 1040 ------- 1 6.0 1.0 32 48
+ 0.409028 5 4 tcp 1040 ------- 1 6.0 1.0 32 48
- 0.409028 5 4 tcp 1040 ------- 1 6.0 1.0 32 48
r 0.409328 5 4 tcp 1040 ------- 1 6.0 1.0 31 47
+ 0.409328 4 3 tcp 1040 ------- 1 6.0 1.0 31 47
r 0.409412 5 4 tcp 1040 ------- 1 6.0 1.0 32 48
+ 0.409412 4 3 tcp 1040 ------- 1 6.0 1.0 32 48
r 0.410605 2 1 tcp 1040 ------- 1 6.0 1.0 16 24
+ 0.410605 1 2 ack 40 ------- 1 1.0 6.0 16 49
- 0.410605 1 2 ack 40 ------- 1 1.0 6.0 16 49
- 0.414855 4 3 tcp 1040 ------- 1 6.0 1.0 18 27
r 0.415055 4 3 tcp 1040 ------- 1 6.0 1.0 17 26
+ 0.415055 3 2 tcp 1040 ------- 1 6.0 1.0 17 26
- 0.415055 3 2 tcp 1040 ------- 1 6.0 1.0 17 26
r 0.416087 3 2 tcp 1040 ------- 1 6.0 1.0 17 26
+ 0.416087 2 1 tcp 1040 ------- 1 6.0 1.0 17 26
- 0.416087 2 1 tcp 1040 ------- 1 6.0 1.0 17 26
r 0.420637 1 2 ack 40 ------- 1 1.0 6.0 16 49
+ 0.420637 2 3 ack 40 ------- 1 1.0 6.0 16 49
- 0.420637 2 3 ack 40 ------- 1 1.0 6.0 16 49
r 0.420869 2 3 ack 40 ------- 1 1.0 6.0 16 49
+ 0.420869 3 4 ack 40 ------- 1 1.0 6.0 16 49
- 0.420869 3 4 ack 40 ------- 1 1.0 6.0 16 49
r 0.424269 3 4 ack 40 ------- 1 1.0 6.0 16 49
+ 0.424269 4 5 ack 40 ------- 1 1.0 6.0 16 49
- 0.424269 4 5 ack 40 ------- 1 1.0 6.0 16 49
r 0.424573 4 5 ack 40 ------- 1 1.0 6.0 16 49
+ 0.424573 5 6 ack 40 ------- 1 1.0 6.0 16 49
- 0.424573 5 6 ack 40 ------- 1 1.0 6.0 16 49
r 0.424876 5 6 ack 40 ------- 1 1.0 6.0 16 49
+ 0.424876 6 5 tcp 1040 ------- 1 6.0 1.0 33 50
- 0.424876 6 5 tcp 1040 ------- 1 6.0 1.0 33 50
+ 0.424876 6 5 tcp 1040 ------- 1 6.0 1.0 34 51
- 0.424959 6 5 tcp 1040 ------- 1 6.0 1.0 34 51
r 0.425259 6 5 tcp 1040 ------- 1 6.0 1.0 33 50
+ 0.425259 5 4 tcp 1040 ------- 1 6.0 1.0 33 50
- 0.425259 5 4 tcp 1040 ------- 1 6.0 1.0 33 50
r 0.425342 6 5 tcp 1040 ------- 1 6.0 1.0 34 51
+ 0.425342 5 4 tcp 1040 ------- 1 6.0 1.0 34 51
- 0.425342 5 4 tcp 1040 ------- 1 6.0 1.0 34 51
r 0.425642 5 4 tcp 1040 ------- 1 6.0 1.0 33 50
+ 0.425642 4 3 tcp 1040 ------- 1 6.0 1.0 33 50
r 0.425725 5 4 tcp 1040 ------- 1 6.0 1.0 34 51
+ 0.425725 4 3 tcp 1040 ------- 1 6.0 1.0 34 51
r 0.426919 2 1 tcp 1040 ------- 1 6.0 1.0 17 26
+ 0.426919 1 2 ack 40 ------- 1 1.0 6.0 17 52
- 0.426919 1 2 ack 40 ------- 1 1.0 6.0 17 52