r 3.0108 6 0 cbr 1000 ------- 0 6.1 5.0 0 6918
r 3.0108 7 0 cbr 1000 ------- 1 7.1 5.0 0 6920
r 3.0108 8 0 cbr 1000 ------- 2 8.1 5.0 0 6922
r 3.0108 9 0 cbr 1000 ------- 3 9.1 5.0 0 6924
r 3.0108 10 0 cbr 1000 ------- 4 10.1 5.0 0 6926
r 3.0108 11 0 cbr 1000 ------- 5 11.1 5.0 0 6928
r 3.0108 12 0 cbr 1000 ------- 6 12.1 5.0 0 6930
r 3.0108 13 0 cbr 1000 ------- 7 13.1 5.0 0 6932
r 3.0108 14 0 cbr 1000 ------- 8 14.1 5.0 0 6934
r 3.0108 15 0 cbr 1000 ------- 9 15.1 5.0 0 6936
r 3.0112 6 0 cbr 500 ------- 0 6.1 5.0 1 6919
r 3.0112 7 0 cbr 500 ------- 1 7.1 5.0 1 6921
r 3.0112 8 0 cbr 500 ------- 2 8.1 5.0 1 6923
r 3.0112 9 0 cbr 500 ------- 3 9.1 5.0 1 6925
r 3.0112 10 0 cbr 500 ------- 4 10.1 5.0 1 6927
r 3.0112 11 0 cbr 500 ------- 5 11.1 5.0 1 6929
r 3.0112 12 0 cbr 500 ------- 6 12.1 5.0 1 6931
r 3.0112 13 0 cbr 500 ------- 7 13.1 5.0 1 6933
r 3.0112 14 0 cbr 500 ------- 8 14.1 5.0 1 6935
r 3.0112 15 0 cbr 500 ------- 9 15.1 5.0 1 6937
r 3.0118 0 1 cbr 1000 ------- 0 6.1 5.0 0 6918
r 3.0125 1 2 cbr 1000 ------- 0 6.1 5.0 0 6918
r 3.0126 0 1 cbr 1000 ------- 1 7.1 5.0 0 6920
r 3.01288 2 3 cbr 1000 ------- 0 6.1 5.0 0 6918
r 3.01326 3 5 cbr 1000 ------- 0 6.1 5.0 0 6918
r 3.0133 1 2 cbr 1000 ------- 1 7.1 5.0 0 6920
r 3.0134 0 1 cbr 1000 ------- 2 8.1 5.0 0 6922
r 3.01368 2 3 cbr 1000 ------- 1 7.1 5.0 0 6920
r 3.01406 3 5 cbr 1000 ------- 1 7.1 5.0 0 6920
r 3.0141 1 2 cbr 1000 ------- 2 8.1 5.0 0 6922
r 3.0142 0 1 cbr 1000 ------- 3 9.1 5.0 0 6924
r 3.01448 2 3 cbr 1000 ------- 2 8.1 5.0 0 6922
r 3.01486 3 5 cbr 1000 ------- 2 8.1 5.0 0 6922
r 3.0149 1 2 cbr 1000 ------- 3 9.1 5.0 0 6924
r 3.015 0 1 cbr 1000 ------- 4 10.1 5.0 0 6926
r 3.01528 2 3 cbr 1000 ------- 3 9.1 5.0 0 6924
r 3.01566 3 5 cbr 1000 ------- 3 9.1 5.0 0 6924
r 3.0157 1 2 cbr 1000 ------- 4 10.1 5.0 0 6926
r 3.0158 0 1 cbr 1000 ------- 5 11.1 5.0 0 6928
r 3.01608 2 3 cbr 1000 ------- 4 10.1 5.0 0 6926
r 3.01646 3 5 cbr 1000 ------- 4 10.1 5.0 0 6926
r 3.0165 1 2 cbr 1000 ------- 5 11.1 5.0 0 6928
r 3.0166 0 1 cbr 1000 ------- 6 12.1 5.0 0 6930
r 3.01688 2 3 cbr 1000 ------- 5 11.1 5.0 0 6928
r 3.01726 3 5 cbr 1000 ------- 5 11.1 5.0 0 6928
r 3.0173 1 2 cbr 1000 ------- 6 12.1 5.0 0 6930
r 3.0174 0 1 cbr 1000 ------- 7 13.1 5.0 0 6932
r 3.01768 2 3 cbr 1000 ------- 6 12.1 5.0 0 6930
r 3.01806 3 5 cbr 1000 ------- 6 12.1 5.0 0 6930
r 3.0181 1 2 cbr 1000 ------- 7 13.1 5.0 0 6932
r 3.0182 0 1 cbr 1000 ------- 8 14.1 5.0 0 6934
r 3.01848 2 3 cbr 1000 ------- 7 13.1 5.0 0 6932
r 3.01886 3 5 cbr 1000 ------- 7 13.1 5.0 0 6932
r 3.0189 1 2 cbr 1000 ------- 8 14.1 5.0 0 6934
r 3.019 0 1 cbr 1000 ------- 9 15.1 5.0 0 6936
r 3.01928 2 3 cbr 1000 ------- 8 14.1 5.0 0 6934
r 3.0194 0 1 cbr 500 ------- 0 6.1 5.0 1 6919
r 3.01966 3 5 cbr 1000 ------- 8 14.1 5.0 0 6934
r 3.0197 1 2 cbr 1000 ------- 9 15.1 5.0 0 6936
r 3.0198 0 1 cbr 500 ------- 1 7.1 5.0 1 6921
r 3.01995 1 2 cbr 500 ------- 0 6.1 5.0 1 6919
r 3.02008 2 3 cbr 1000 ------- 9 15.1 5.0 0 6936
r 3.0202 0 1 cbr 500 ------- 2 8.1 5.0 1 6923
r 3.02025 1 2 cbr 500 ------- 1 7.1 5.0 1 6921
r 3.02029 2 3 cbr 500 ------- 0 6.1 5.0 1 6919
r 3.02046 3 5 cbr 1000 ------- 9 15.1 5.0 0 6936
r 3.02059 2 3 cbr 500 ------- 1 7.1 5.0 1 6921
r 3.0206 0 1 cbr 500 ------- 3 9.1 5.0 1 6925
r 3.02063 3 5 cbr 500 ------- 0 6.1 5.0 1 6919
r 3.02065 1 2 cbr 500 ------- 2 8.1 5.0 1 6923
r 3.02093 3 5 cbr 500 ------- 1 7.1 5.0 1 6921
r 3.02099 2 3 cbr 500 ------- 2 8.1 5.0 1 6923
r 3.021 0 1 cbr 500 ------- 4 10.1 5.0 1 6927
r 3.02105 1 2 cbr 500 ------- 3 9.1 5.0 1 6925
r 3.02133 3 5 cbr 500 ------- 2 8.1 5.0 1 6923
r 3.02139 2 3 cbr 500 ------- 3 9.1 5.0 1 6925
r 3.0214 0 1 cbr 500 ------- 5 11.1 5.0 1 6929
r 3.02145 1 2 cbr 500 ------- 4 10.1 5.0 1 6927
r 3.02173 3 5 cbr 500 ------- 3 9.1 5.0 1 6925
r 3.02179 2 3 cbr 500 ------- 4 10.1 5.0 1 6927
r 3.0218 0 1 cbr 500 ------- 6 12.1 5.0 1 6931
r 3.02185 1 2 cbr 500 ------- 5 11.1 5.0 1 6929
r 3.02213 3 5 cbr 500 ------- 4 10.1 5.0 1 6927
r 3.02219 2 3 cbr 500 ------- 5 11.1 5.0 1 6929
r 3.0222 0 1 cbr 500 ------- 7 13.1 5.0 1 6933
r 3.02225 1 2 cbr 500 ------- 6 12.1 5.0 1 6931
r 3.02253 3 5 cbr 500 ------- 5 11.1 5.0 1 6929
r 3.02259 2 3 cbr 500 ------- 6 12.1 5.0 1 6931
r 3.0226 0 1 cbr 500 ------- 8 14.1 5.0 1 6935
r 3.02265 1 2 cbr 500 ------- 7 13.1 5.0 1 6933
r 3.02293 3 5 cbr 500 ------- 6 12.1 5.0 1 6931
r 3.02299 2 3 cbr 500 ------- 7 13.1 5.0 1 6933
r 3.023 0 1 cbr 500 ------- 9 15.1 5.0 1 6937
r 3.02305 1 2 cbr 500 ------- 8 14.1 5.0 1 6935
r 3.02333 3 5 cbr 500 ------- 7 13.1 5.0 1 6933
r 3.02339 2 3 cbr 500 ------- 8 14.1 5.0 1 6935
r 3.02345 1 2 cbr 500 ------- 9 15.1 5.0 1 6937
r 3.02373 3 5 cbr 500 ------- 8 14.1 5.0 1 6935
r 3.02379 2 3 cbr 500 ------- 9 15.1 5.0 1 6937
r 3.02413 3 5 cbr 500 ------- 9 15.1 5.0 1 6937
r 3.037586 6 0 cbr 1000 ------- 0 6.1 5.0 2 7008
r 3.037586 7 0 cbr 1000 ------- 1 7.1 5.0 2 7010
r 3.037586 8 0 cbr 1000 ------- 2 8.1 5.0 2 7012
r 3.037586 9 0 cbr 1000 ------- 3 9.1 5.0 2 7014
r 3.037586 10 0 cbr 1000 ------- 4 10.1 5.0 2 7016
r 3.037586 11 0 cbr 1000 ------- 5 11.1 5.0 2 7018
r 3.037586 12 0 cbr 1000 ------- 6 12.1 5.0 2 7020
r 3.037586 13 0 cbr 1000 ------- 7 13.1 5.0 2 7022
r 3.037586 14 0 cbr 1000 ------- 8 14.1 5.0 2 7024
r 3.037586 15 0 cbr 1000 ------- 9 15.1 5.0 2 7026
r 3.037986 6 0 cbr 500 ------- 0 6.1 5.0 3 7009
r 3.037986 7 0 cbr 500 ------- 1 7.1 5.0 3 7011
r 3.037986 8 0 cbr 500 ------- 2 8.1 5.0 3 7013
r 3.037986 9 0 cbr 500 ------- 3 9.1 5.0 3 7015
r 3.037986 10 0 cbr 500 ------- 4 10.1 5.0 3 7017
r 3.037986 11 0 cbr 500 ------- 5 11.1 5.0 3 7019
r 3.037986 12 0 cbr 500 ------- 6 12.1 5.0 3 7021
r 3.037986 13 0 cbr 500 ------- 7 13.1 5.0 3 7023
r 3.037986 14 0 cbr 500 ------- 8 14.1 5.0 3 7025
r 3.037986 15 0 cbr 500 ------- 9 15.1 5.0 3 7027
r 3.038586 0 1 cbr 1000 ------- 0 6.1 5.0 2 7008
r 3.039286 1 2 cbr 1000 ------- 0 6.1 5.0 2 7008
r 3.039386 0 1 cbr 1000 ------- 1 7.1 5.0 2 7010
r 3.039666 2 3 cbr 1000 ------- 0 6.1 5.0 2 7008
r 3.040046 3 5 cbr 1000 ------- 0 6.1 5.0 2 7008
r 3.040086 1 2 cbr 1000 ------- 1 7.1 5.0 2 7010
r 3.040186 0 1 cbr 1000 ------- 2 8.1 5.0 2 7012
r 3.040466 2 3 cbr 1000 ------- 1 7.1 5.0 2 7010
r 3.040846 3 5 cbr 1000 ------- 1 7.1 5.0 2 7010
r 3.040886 1 2 cbr 1000 ------- 2 8.1 5.0 2 7012
r 3.040986 0 1 cbr 1000 ------- 3 9.1 5.0 2 7014
r 3.041266 2 3 cbr 1000 ------- 2 8.1 5.0 2 7012
r 3.041646 3 5 cbr 1000 ------- 2 8.1 5.0 2 7012
r 3.041686 1 2 cbr 1000 ------- 3 9.1 5.0 2 7014
r 3.041786 0 1 cbr 1000 ------- 4 10.1 5.0 2 7016
r 3.042066 2 3 cbr 1000 ------- 3 9.1 5.0 2 7014
r 3.042446 3 5 cbr 1000 ------- 3 9.1 5.0 2 7014
r 3.042486 1 2 cbr 1000 ------- 4 10.1 5.0 2 7016
r 3.042586 0 1 cbr 1000 ------- 5 11.1 5.0 2 7018
r 3.042866 2 3 cbr 1000 ------- 4 10.1 5.0 2 7016
r 3.043246 3 5 cbr 1000 ------- 4 10.1 5.0 2 7016
r 3.043286 1 2 cbr 1000 ------- 5 11.1 5.0 2 7018
r 3.043386 0 1 cbr 1000 ------- 6 12.1 5.0 2 7020
r 3.043666 2 3 cbr 1000 ------- 5 11.1 5.0 2 7018
r 3.044046 3 5 cbr 1000 ------- 5 11.1 5.0 2 7018
r 3.044086 1 2 cbr 1000 ------- 6 12.1 5.0 2 7020
r 3.044186 0 1 cbr 1000 ------- 7 13.1 5.0 2 7022
r 3.044466 2 3 cbr 1000 ------- 6 12.1 5.0 2 7020
r 3.044846 3 5 cbr 1000 ------- 6 12.1 5.0 2 7020
r 3.044886 1 2 cbr 1000 ------- 7 13.1 5.0 2 7022
r 3.044986 0 1 cbr 1000 ------- 8 14.1 5.0 2 7024
r 3.045266 2 3 cbr 1000 ------- 7 13.1 5.0 2 7022
r 3.045646 3 5 cbr 1000 ------- 7 13.1 5.0 2 7022
r 3.045686 1 2 cbr 1000 ------- 8 14.1 5.0 2 7024
r 3.045786 0 1 cbr 1000 ------- 9 15.1 5.0 2 7026
r 3.046066 2 3 cbr 1000 ------- 8 14.1 5.0 2 7024
r 3.046186 0 1 cbr 500 ------- 0 6.1 5.0 3 7009
r 3.046446 3 5 cbr 1000 ------- 8 14.1 5.0 2 7024
r 3.046486 1 2 cbr 1000 ------- 9 15.1 5.0 2 7026
r 3.046586 0 1 cbr 500 ------- 1 7.1 5.0 3 7011
r 3.046736 1 2 cbr 500 ------- 0 6.1 5.0 3 7009
r 3.046866 2 3 cbr 1000 ------- 9 15.1 5.0 2 7026
r 3.046986 0 1 cbr 500 ------- 2 8.1 5.0 3 7013
r 3.047036 1 2 cbr 500 ------- 1 7.1 5.0 3 7011
r 3.047076 2 3 cbr 500 ------- 0 6.1 5.0 3 7009
r 3.047246 3 5 cbr 1000 ------- 9 15.1 5.0 2 7026
r 3.047376 2 3 cbr 500 ------- 1 7.1 5.0 3 7011
r 3.047386 0 1 cbr 500 ------- 3 9.1 5.0 3 7015
r 3.047416 3 5 cbr 500 ------- 0 6.1 5.0 3 7009
r 3.047436 1 2 cbr 500 ------- 2 8.1 5.0 3 7013
r 3.047716 3 5 cbr 500 ------- 1 7.1 5.0 3 7011
r 3.047776 2 3 cbr 500 ------- 2 8.1 5.0 3 7013
r 3.047786 0 1 cbr 500 ------- 4 10.1 5.0 3 7017
r 3.047836 1 2 cbr 500 ------- 3 9.1 5.0 3 7015
r 3.048116 3 5 cbr 500 ------- 2 8.1 5.0 3 7013
r 3.048176 2 3 cbr 500 ------- 3 9.1 5.0 3 7015
r 3.048186 0 1 cbr 500 ------- 5 11.1 5.0 3 7019
r 3.048236 1 2 cbr 500 ------- 4 10.1 5.0 3 7017
r 3.048516 3 5 cbr 500 ------- 3 9.1 5.0 3 7015
r 3.048576 2 3 cbr 500 ------- 4 10.1 5.0 3 7017
r 3.048586 0 1 cbr 500 ------- 6 12.1 5.0 3 7021
r 3.048636 1 2 cbr 500 ------- 5 11.1 5.0 3 7019
r 3.048916 3 5 cbr 500 ------- 4 10.1 5.0 3 7017
r 3.048976 2 3 cbr 500 ------- 5 11.1 5.0 3 7019
r 3.048986 0 1 cbr 500 ------- 7 13.1 5.0 3 7023
r 3.049036 1 2 cbr 500 ------- 6 12.1 5.0 3 7021
r 3.049316 3 5 cbr 500 ------- 5 11.1 5.0 3 7019
r 3.049376 2 3 cbr 500 ------- 6 12.1 5.0 3 7021
r 3.049386 0 1 cbr 500 ------- 8 14.1 5.0 3 7025
r 3.049436 1 2 cbr 500 ------- 7 13.1 5.0 3 7023
r 3.049716 3 5 cbr 500 ------- 6 12.1 5.0 3 7021
r 3.049776 2 3 cbr 500 ------- 7 13.1 5.0 3 7023
r 3.049786 0 1 cbr 500 ------- 9 15.1 5.0 3 7027
r 3.049836 1 2 cbr 500 ------- 8 14.1 5.0 3 7025
r 3.050116 3 5 cbr 500 ------- 7 13.1 5.0 3 7023
r 3.050176 2 3 cbr 500 ------- 8 14.1 5.0 3 7025
r 3.050236 1 2 cbr 500 ------- 9 15.1 5.0 3 7027
r 3.050516 3 5 cbr 500 ------- 8 14.1 5.0 3 7025
r 3.050576 2 3 cbr 500 ------- 9 15.1 5.0 3 7027
r 3.050916 3 5 cbr 500 ------- 9 15.1 5.0 3 7027
r 3.064371 6 0 cbr 1000 ------- 0 6.1 5.0 4 7092
r 3.064371 7 0 cbr 1000 ------- 1 7.1 5.0 4 7094
r 3.064371 8 0 cbr 1000 ------- 2 8.1 5.0 4 7096
r 3.064371 9 0 cbr 1000 ------- 3 9.1 5.0 4 7098
r 3.064371 10 0 cbr 1000 ------- 4 10.1 5.0 4 7100
r 3.064371 11 0 cbr 1000 ------- 5 11.1 5.0 4 7102
r 3.064371 12 0 cbr 1000 ------- 6 12.1 5.0 4 7104
r 3.064371 13 0 cbr 1000 ------- 7 13.1 5.0 4 7106
r 3.064371 14 0 cbr 1000 ------- 8 14.1 5.0 4 7108
r 3.064371 15 0 cbr 1000 ------- 9 15.1 5.0 4 7110
r 3.064771 6 0 cbr 500 ------- 0 6.1 5.0 5 7093
r 3.064771 7 0 cbr 500 ------- 1 7.1 5.0 5 7095
r 3.064771 8 0 cbr 500 ------- 2 8.1 5.0 5 7097
r 3.064771 9 0 cbr 500 ------- 3 9.1 5.0 5 7099
r 3.064771 10 0 cbr 500 ------- 4 10.1 5.0 5 7101
r 3.064771 11 0 cbr 500 ------- 5 11.1 5.0 5 7103
r 3.064771 12 0 cbr 500 ------- 6 12.1 5.0 5 7105
r 3.064771 13 0 cbr 500 ------- 7 13.1 5.0 5 7107
r 3.064771 14 0 cbr 500 ------- 8 14.1 5.0 5 7109
r 3.064771 15 0 cbr 500 ------- 9 15.1 5.0 5 7111
r 3.065371 0 1 cbr 1000 ------- 0 6.1 5.0 4 7092
r 3.066071 1 2 cbr 1000 ------- 0 6.1 5.0 4 7092
r 3.066171 0 1 cbr 1000 ------- 1 7.1 5.0 4 7094
r 3.066451 2 3 cbr 1000 ------- 0 6.1 5.0 4 7092
r 3.066831 3 5 cbr 1000 ------- 0 6.1 5.0 4 7092
r 3.066871 1 2 cbr 1000 ------- 1 7.1 5.0 4 7094
r 3.066971 0 1 cbr 1000 ------- 2 8.1 5.0 4 7096
r 3.067251 2 3 cbr 1000 ------- 1 7.1 5.0 4 7094
r 3.067631 3 5 cbr 1000 ------- 1 7.1 5.0 4 7094
r 3.067671 1 2 cbr 1000 ------- 2 8.1 5.0 4 7096
r 3.067771 0 1 cbr 1000 ------- 3 9.1 5.0 4 7098
r 3.068051 2 3 cbr 1000 ------- 2 8.1 5.0 4 7096
r 3.068431 3 5 cbr 1000 ------- 2 8.1 5.0 4 7096
r 3.068471 1 2 cbr 1000 ------- 3 9.1 5.0 4 7098
r 3.068571 0 1 cbr 1000 ------- 4 10.1 5.0 4 7100
r 3.068851 2 3 cbr 1000 ------- 3 9.1 5.0 4 7098
r 3.069231 3 5 cbr 1000 ------- 3 9.1 5.0 4 7098
r 3.069271 1 2 cbr 1000 ------- 4 10.1 5.0 4 7100
r 3.069371 0 1 cbr 1000 ------- 5 11.1 5.0 4 7102
r 3.069651 2 3 cbr 1000 ------- 4 10.1 5.0 4 7100
r 3.070031 3 5 cbr 1000 ------- 4 10.1 5.0 4 7100
r 3.070071 1 2 cbr 1000 ------- 5 11.1 5.0 4 7102
r 3.070171 0 1 cbr 1000 ------- 6 12.1 5.0 4 7104
r 3.070451 2 3 cbr 1000 ------- 5 11.1 5.0 4 7102
r 3.070831 3 5 cbr 1000 ------- 5 11.1 5.0 4 7102
r 3.070871 1 2 cbr 1000 ------- 6 12.1 5.0 4 7104
r 3.070971 0 1 cbr 1000 ------- 7 13.1 5.0 4 7106
r 3.071251 2 3 cbr 1000 ------- 6 12.1 5.0 4 7104
r 3.071631 3 5 cbr 1000 ------- 6 12.1 5.0 4 7104
r 3.071671 1 2 cbr 1000 ------- 7 13.1 5.0 4 7106
r 3.071771 0 1 cbr 1000 ------- 8 14.1 5.0 4 7108
r 3.072051 2 3 cbr 1000 ------- 7 13.1 5.0 4 7106
r 3.072431 3 5 cbr 1000 ------- 7 13.1 5.0 4 7106
r 3.072471 1 2 cbr 1000 ------- 8 14.1 5.0 4 7108
r 3.072571 0 1 cbr 1000 ------- 9 15.1 5.0 4 7110
r 3.072851 2 3 cbr 1000 ------- 8 14.1 5.0 4 7108
r 3.072971 0 1 cbr 500 ------- 0 6.1 5.0 5 7093
r 3.073231 3 5 cbr 1000 ------- 8 14.1 5.0 4 7108
r 3.073271 1 2 cbr 1000 ------- 9 15.1 5.0 4 7110
r 3.073371 0 1 cbr 500 ------- 1 7.1 5.0 5 7095
r 3.073521 1 2 cbr 500 ------- 0 6.1 5.0 5 7093
r 3.073651 2 3 cbr 1000 ------- 9 15.1 5.0 4 7110
r 3.073771 0 1 cbr 500 ------- 2 8.1 5.0 5 7097
r 3.073821 1 2 cbr 500 ------- 1 7.1 5.0 5 7095
r 3.073861 2 3 cbr 500 ------- 0 6.1 5.0 5 7093
r 3.074031 3 5 cbr 1000 ------- 9 15.1 5.0 4 7110
r 3.074161 2 3 cbr 500 ------- 1 7.1 5.0 5 7095
r 3.074171 0 1 cbr 500 ------- 3 9.1 5.0 5 7099
r 3.074201 3 5 cbr 500 ------- 0 6.1 5.0 5 7093
r 3.074221 1 2 cbr 500 ------- 2 8.1 5.0 5 7097
r 3.074501 3 5 cbr 500 ------- 1 7.1 5.0 5 7095
r 3.074561 2 3 cbr 500 ------- 2 8.1 5.0 5 7097
r 3.074571 0 1 cbr 500 ------- 4 10.1 5.0 5 7101
r 3.074621 1 2 cbr 500 ------- 3 9.1 5.0 5 7099
r 3.074901 3 5 cbr 500 ------- 2 8.1 5.0 5 7097
r 3.074961 2 3 cbr 500 ------- 3 9.1 5.0 5 7099
r 3.074971 0 1 cbr 500 ------- 5 11.1 5.0 5 7103
r 3.075021 1 2 cbr 500 ------- 4 10.1 5.0 5 7101
r 3.075301 3 5 cbr 500 ------- 3 9.1 5.0 5 7099
r 3.075361 2 3 cbr 500 ------- 4 10.1 5.0 5 7101
r 3.075371 0 1 cbr 500 ------- 6 12.1 5.0 5 7105
r 3.075421 1 2 cbr 500 ------- 5 11.1 5.0 5 7103
r 3.075701 3 5 cbr 500 ------- 4 10.1 5.0 5 7101
r 3.075761 2 3 cbr 500 ------- 5 11.1 5.0 5 7103
r 3.075771 0 1 cbr 500 ------- 7 13.1 5.0 5 7107
r 3.075821 1 2 cbr 500 ------- 6 12.1 5.0 5 7105
r 3.076101 3 5 cbr 500 ------- 5 11.1 5.0 5 7103
r 3.076161 2 3 cbr 500 ------- 6 12.1 5.0 5 7105
r 3.076171 0 1 cbr 500 ------- 8 14.1 5.0 5 7109
r 3.076221 1 2 cbr 500 ------- 7 13.1 5.0 5 7107
r 3.076501 3 5 cbr 500 ------- 6 12.1 5.0 5 7105
r 3.076561 2 3 cbr 500 ------- 7 13.1 5.0 5 7107
r 3.076571 0 1 cbr 500 ------- 9 15.1 5.0 5 7111
r 3.076621 1 2 cbr 500 ------- 8 14.1 5.0 5 7109
r 3.076901 3 5 cbr 500 ------- 7 13.1 5.0 5 7107
r 3.076961 2 3 cbr 500 ------- 8 14.1 5.0 5 7109
r 3.077021 1 2 cbr 500 ------- 9 15.1 5.0 5 7111
r 3.077301 3 5 cbr 500 ------- 8 14.1 5.0 5 7109
r 3.077361 2 3 cbr 500 ------- 9 15.1 5.0 5 7111
r 3.077701 3 5 cbr 500 ------- 9 15.1 5.0 5 7111
r 3.091157 6 0 cbr 1000 ------- 0 6.1 5.0 6 7177
r 3.091157 7 0 cbr 1000 ------- 1 7.1 5.0 6 7179
r 3.091157 8 0 cbr 1000 ------- 2 8.1 5.0 6 7181
r 3.091157 9 0 cbr 1000 ------- 3 9.1 5.0 6 7183
r 3.091157 10 0 cbr 1000 ------- 4 10.1 5.0 6 7185
r 3.091157 11 0 cbr 1000 ------- 5 11.1 5.0 6 7187
r 3.091157 12 0 cbr 1000 ------- 6 12.1 5.0 6 7189
r 3.091157 13 0 cbr 1000 ------- 7 13.1 5.0 6 7191
r 3.091157 14 0 cbr 1000 ------- 8 14.1 5.0 6 7193
r 3.091157 15 0 cbr 1000 ------- 9 15.1 5.0 6 7195
r 3.091557 6 0 cbr 500 ------- 0 6.1 5.0 7 7178
r 3.091557 7 0 cbr 500 ------- 1 7.1 5.0 7 7180
r 3.091557 8 0 cbr 500 ------- 2 8.1 5.0 7 7182
r 3.091557 9 0 cbr 500 ------- 3 9.1 5.0 7 7184
r 3.091557 10 0 cbr 500 ------- 4 10.1 5.0 7 7186
r 3.091557 11 0 cbr 500 ------- 5 11.1 5.0 7 7188
r 3.091557 12 0 cbr 500 ------- 6 12.1 5.0 7 7190
r 3.091557 13 0 cbr 500 ------- 7 13.1 5.0 7 7192
r 3.091557 14 0 cbr 500 ------- 8 14.1 5.0 7 7194
r 3.091557 15 0 cbr 500 ------- 9 15.1 5.0 7 7196
r 3.092157 0 1 cbr 1000 ------- 0 6.1 5.0 6 7177
r 3.092857 1 2 cbr 1000 ------- 0 6.1 5.0 6 7177
r 3.092957 0 1 cbr 1000 ------- 1 7.1 5.0 6 7179
r 3.093237 2 3 cbr 1000 ------- 0 6.1 5.0 6 7177
r 3.093617 3 5 cbr 1000 ------- 0 6.1 5.0 6 7177
r 3.093657 1 2 cbr 1000 ------- 1 7.1 5.0 6 7179
r 3.093757 0 1 cbr 1000 ------- 2 8.1 5.0 6 7181
r 3.094037 2 3 cbr 1000 ------- 1 7.1 5.0 6 7179
r 3.094417 3 5 cbr 1000 ------- 1 7.1 5.0 6 7179
r 3.094457 1 2 cbr 1000 ------- 2 8.1 5.0 6 7181
r 3.094557 0 1 cbr 1000 ------- 3 9.1 5.0 6 7183
r 3.094837 2 3 cbr 1000 ------- 2 8.1 5.0 6 7181
r 3.095217 3 5 cbr 1000 ------- 2 8.1 5.0 6 7181
r 3.095257 1 2 cbr 1000 ------- 3 9.1 5.0 6 7183
r 3.095357 0 1 cbr 1000 ------- 4 10.1 5.0 6 7185
r 3.095637 2 3 cbr 1000 ------- 3 9.1 5.0 6 7183
r 3.096017 3 5 cbr 1000 ------- 3 9.1 5.0 6 7183
r 3.096057 1 2 cbr 1000 ------- 4 10.1 5.0 6 7185
r 3.096157 0 1 cbr 1000 ------- 5 11.1 5.0 6 7187
r 3.096437 2 3 cbr 1000 ------- 4 10.1 5.0 6 7185
r 3.096817 3 5 cbr 1000 ------- 4 10.1 5.0 6 7185
r 3.096857 1 2 cbr 1000 ------- 5 11.1 5.0 6 7187
r 3.096957 0 1 cbr 1000 ------- 6 12.1 5.0 6 7189
r 3.097237 2 3 cbr 1000 ------- 5 11.1 5.0 6 7187
r 3.097617 3 5 cbr 1000 ------- 5 11.1 5.0 6 7187
r 3.097657 1 2 cbr 1000 ------- 6 12.1 5.0 6 7189
r 3.097757 0 1 cbr 1000 ------- 7 13.1 5.0 6 7191
r 3.098037 2 3 cbr 1000 ------- 6 12.1 5.0 6 7189
r 3.098417 3 5 cbr 1000 ------- 6 12.1 5.0 6 7189
r 3.098457 1 2 cbr 1000 ------- 7 13.1 5.0 6 7191
r 3.098557 0 1 cbr 1000 ------- 8 14.1 5.0 6 7193
r 3.098837 2 3 cbr 1000 ------- 7 13.1 5.0 6 7191
r 3.099217 3 5 cbr 1000 ------- 7 13.1 5.0 6 7191
r 3.099257 1 2 cbr 1000 ------- 8 14.1 5.0 6 7193
r 3.099357 0 1 cbr 1000 ------- 9 15.1 5.0 6 7195
r 3.099637 2 3 cbr 1000 ------- 8 14.1 5.0 6 7193
r 3.099757 0 1 cbr 500 ------- 0 6.1 5.0 7 7178
r 3.100017 3 5 cbr 1000 ------- 8 14.1 5.0 6 7193
r 3.100057 1 2 cbr 1000 ------- 9 15.1 5.0 6 7195
r 3.100157 0 1 cbr 500 ------- 1 7.1 5.0 7 7180
r 3.100307 1 2 cbr 500 ------- 0 6.1 5.0 7 7178
r 3.100437 2 3 cbr 1000 ------- 9 15.1 5.0 6 7195
r 3.100557 0 1 cbr 500 ------- 2 8.1 5.0 7 7182
r 3.100607 1 2 cbr 500 ------- 1 7.1 5.0 7 7180
r 3.100647 2 3 cbr 500 ------- 0 6.1 5.0 7 7178
r 3.100817 3 5 cbr 1000 ------- 9 15.1 5.0 6 7195
r 3.100947 2 3 cbr 500 ------- 1 7.1 5.0 7 7180
r 3.100957 0 1 cbr 500 ------- 3 9.1 5.0 7 7184
r 3.100987 3 5 cbr 500 ------- 0 6.1 5.0 7 7178
r 3.101007 1 2 cbr 500 ------- 2 8.1 5.0 7 7182
r 3.101287 3 5 cbr 500 ------- 1 7.1 5.0 7 7180
r 3.101347 2 3 cbr 500 ------- 2 8.1 5.0 7 7182
r 3.101357 0 1 cbr 500 ------- 4 10.1 5.0 7 7186
r 3.101407 1 2 cbr 500 ------- 3 9.1 5.0 7 7184
r 3.101687 3 5 cbr 500 ------- 2 8.1 5.0 7 7182
r 3.101747 2 3 cbr 500 ------- 3 9.1 5.0 7 7184
r 3.101757 0 1 cbr 500 ------- 5 11.1 5.0 7 7188
r 3.101807 1 2 cbr 500 ------- 4 10.1 5.0 7 7186
r 3.102087 3 5 cbr 500 ------- 3 9.1 5.0 7 7184
r 3.102147 2 3 cbr 500 ------- 4 10.1 5.0 7 7186
r 3.102157 0 1 cbr 500 ------- 6 12.1 5.0 7 7190
r 3.102207 1 2 cbr 500 ------- 5 11.1 5.0 7 7188
r 3.102487 3 5 cbr 500 ------- 4 10.1 5.0 7 7186
r 3.102547 2 3 cbr 500 ------- 5 11.1 5.0 7 7188
r 3.102557 0 1 cbr 500 ------- 7 13.1 5.0 7 7192
r 3.102607 1 2 cbr 500 ------- 6 12.1 5.0 7 7190
r 3.102887 3 5 cbr 500 ------- 5 11.1 5.0 7 7188
r 3.102947 2 3 cbr 500 ------- 6 12.1 5.0 7 7190
r 3.102957 0 1 cbr 500 ------- 8 14.1 5.0 7 7194
r 3.103007 1 2 cbr 500 ------- 7 13.1 5.0 7 7192
r 3.103287 3 5 cbr 500 ------- 6 12.1 5.0 7 7190
r 3.103347 2 3 cbr 500 ------- 7 13.1 5.0 7 7192
r 3.103357 0 1 cbr 500 ------- 9 15.1 5.0 7 7196
r 3.103407 1 2 cbr 500 ------- 8 14.1 5.0 7 7194
r 3.103687 3 5 cbr 500 ------- 7 13.1 5.0 7 7192
r 3.103747 2 3 cbr 500 ------- 8 14.1 5.0 7 7194
r 3.103807 1 2 cbr 500 ------- 9 15.1 5.0 7 7196
r 3.104087 3 5 cbr 500 ------- 8 14.1 5.0 7 7194
r 3.104147 2 3 cbr 500 ------- 9 15.1 5.0 7 7196
r 3.104487 3 5 cbr 500 ------- 9 15.1 5.0 7 7196
r 3.117943 7 0 cbr 1000 ------- 1 7.1 5.0 8 7253
r 3.117943 8 0 cbr 1000 ------- 2 8.1 5.0 8 7255
r 3.117943 9 0 cbr 1000 ------- 3 9.1 5.0 8 7257
r 3.117943 10 0 cbr 1000 ------- 4 10.1 5.0 8 7259
r 3.117943 11 0 cbr 1000 ------- 5 11.1 5.0 8 7261
r 3.117943 12 0 cbr 1000 ------- 6 12.1 5.0 8 7263
r 3.117943 13 0 cbr 1000 ------- 7 13.1 5.0 8 7265
r 3.117943 14 0 cbr 1000 ------- 8 14.1 5.0 8 7267
r 3.117943 15 0 cbr 1000 ------- 9 15.1 5.0 8 7269
r 3.117952 6 0 cbr 1000 ------- 0 6.1 5.0 8 7251
r 3.118343 7 0 cbr 500 ------- 1 7.1 5.0 9 7254
r 3.118343 8 0 cbr 500 ------- 2 8.1 5.0 9 7256
r 3.118343 9 0 cbr 500 ------- 3 9.1 5.0 9 7258
r 3.118343 10 0 cbr 500 ------- 4 10.1 5.0 9 7260
r 3.118343 11 0 cbr 500 ------- 5 11.1 5.0 9 7262
r 3.118343 12 0 cbr 500 ------- 6 12.1 5.0 9 7264
r 3.118343 13 0 cbr 500 ------- 7 13.1 5.0 9 7266
r 3.118343 14 0 cbr 500 ------- 8 14.1 5.0 9 7268
r 3.118343 15 0 cbr 500 ------- 9 15.1 5.0 9 7270
r 3.118352 6 0 cbr 500 ------- 0 6.1 5.0 9 7252
r 3.118943 0 1 cbr 1000 ------- 1 7.1 5.0 8 7253
r 3.119643 1 2 cbr 1000 ------- 1 7.1 5.0 8 7253
r 3.119743 0 1 cbr 1000 ------- 2 8.1 5.0 8 7255
r 3.120023 2 3 cbr 1000 ------- 1 7.1 5.0 8 7253
r 3.120403 3 5 cbr 1000 ------- 1 7.1 5.0 8 7253
r 3.120443 1 2 cbr 1000 ------- 2 8.1 5.0 8 7255
r 3.120543 0 1 cbr 1000 ------- 3 9.1 5.0 8 7257
r 3.120823 2 3 cbr 1000 ------- 2 8.1 5.0 8 7255
r 3.121203 3 5 cbr 1000 ------- 2 8.1 5.0 8 7255
r 3.121243 1 2 cbr 1000 ------- 3 9.1 5.0 8 7257
r 3.121343 0 1 cbr 1000 ------- 4 10.1 5.0 8 7259
r 3.121623 2 3 cbr 1000 ------- 3 9.1 5.0 8 7257
r 3.122003 3 5 cbr 1000 ------- 3 9.1 5.0 8 7257
r 3.122043 1 2 cbr 1000 ------- 4 10.1 5.0 8 7259
r 3.122143 0 1 cbr 1000 ------- 5 11.1 5.0 8 7261
r 3.122423 2 3 cbr 1000 ------- 4 10.1 5.0 8 7259
r 3.122803 3 5 cbr 1000 ------- 4 10.1 5.0 8 7259
r 3.122843 1 2 cbr 1000 ------- 5 11.1 5.0 8 7261
r 3.122943 0 1 cbr 1000 ------- 6 12.1 5.0 8 7263
r 3.123223 2 3 cbr 1000 ------- 5 11.1 5.0 8 7261
r 3.123603 3 5 cbr 1000 ------- 5 11.1 5.0 8 7261
r 3.123643 1 2 cbr 1000 ------- 6 12.1 5.0 8 7263
r 3.123743 0 1 cbr 1000 ------- 7 13.1 5.0 8 7265
r 3.124023 2 3 cbr 1000 ------- 6 12.1 5.0 8 7263
r 3.124403 3 5 cbr 1000 ------- 6 12.1 5.0 8 7263
r 3.124443 1 2 cbr 1000 ------- 7 13.1 5.0 8 7265
r 3.124543 0 1 cbr 1000 ------- 8 14.1 5.0 8 7267
r 3.124823 2 3 cbr 1000 ------- 7 13.1 5.0 8 7265
r 3.125203 3 5 cbr 1000 ------- 7 13.1 5.0 8 7265
r 3.125243 1 2 cbr 1000 ------- 8 14.1 5.0 8 7267
r 3.125343 0 1 cbr 1000 ------- 9 15.1 5.0 8 7269
r 3.125623 2 3 cbr 1000 ------- 8 14.1 5.0 8 7267
r 3.126003 3 5 cbr 1000 ------- 8 14.1 5.0 8 7267
r 3.126043 1 2 cbr 1000 ------- 9 15.1 5.0 8 7269
r 3.126143 0 1 cbr 1000 ------- 0 6.1 5.0 8 7251
r 3.126423 2 3 cbr 1000 ------- 9 15.1 5.0 8 7269
r 3.126543 0 1 cbr 500 ------- 1 7.1 5.0 9 7254
r 3.126803 3 5 cbr 1000 ------- 9 15.1 5.0 8 7269
r 3.126843 1 2 cbr 1000 ------- 0 6.1 5.0 8 7251
r 3.126943 0 1 cbr 500 ------- 2 8.1 5.0 9 7256
r 3.127093 1 2 cbr 500 ------- 1 7.1 5.0 9 7254
r 3.127223 2 3 cbr 1000 ------- 0 6.1 5.0 8 7251
r 3.127343 0 1 cbr 500 ------- 3 9.1 5.0 9 7258
r 3.127393 1 2 cbr 500 ------- 2 8.1 5.0 9 7256
r 3.127433 2 3 cbr 500 ------- 1 7.1 5.0 9 7254
r 3.127603 3 5 cbr 1000 ------- 0 6.1 5.0 8 7251
r 3.127733 2 3 cbr 500 ------- 2 8.1 5.0 9 7256
r 3.127743 0 1 cbr 500 ------- 4 10.1 5.0 9 7260
r 3.127773 3 5 cbr 500 ------- 1 7.1 5.0 9 7254
r 3.127793 1 2 cbr 500 ------- 3 9.1 5.0 9 7258
r 3.128073 3 5 cbr 500 ------- 2 8.1 5.0 9 7256
r 3.128133 2 3 cbr 500 ------- 3 9.1 5.0 9 7258
r 3.128143 0 1 cbr 500 ------- 5 11.1 5.0 9 7262
r 3.128193 1 2 cbr 500 ------- 4 10.1 5.0 9 7260
r 3.128473 3 5 cbr 500 ------- 3 9.1 5.0 9 7258
r 3.128533 2 3 cbr 500 ------- 4 10.1 5.0 9 7260
r 3.128543 0 1 cbr 500 ------- 6 12.1 5.0 9 7264
r 3.128593 1 2 cbr 500 ------- 5 11.1 5.0 9 7262
r 3.128873 3 5 cbr 500 ------- 4 10.1 5.0 9 7260
r 3.128933 2 3 cbr 500 ------- 5 11.1 5.0 9 7262
r 3.128943 0 1 cbr 500 ------- 7 13.1 5.0 9 7266
r 3.128993 1 2 cbr 500 ------- 6 12.1 5.0 9 7264
r 3.129273 3 5 cbr 500 ------- 5 11.1 5.0 9 7262
r 3.129333 2 3 cbr 500 ------- 6 12.1 5.0 9 7264
r 3.129343 0 1 cbr 500 ------- 8 14.1 5.0 9 7268
r 3.129393 1 2 cbr 500 ------- 7 13.1 5.0 9 7266
r 3.129673 3 5 cbr 500 ------- 6 12.1 5.0 9 7264
r 3.129733 2 3 cbr 500 ------- 7 13.1 5.0 9 7266
r 3.129743 0 1 cbr 500 ------- 9 15.1 5.0 9 7270
r 3.129793 1 2 cbr 500 ------- 8 14.1 5.0 9 7268
r 3.130073 3 5 cbr 500 ------- 7 13.1 5.0 9 7266
r 3.130133 2 3 cbr 500 ------- 8 14.1 5.0 9 7268
r 3.130143 0 1 cbr 500 ------- 0 6.1 5.0 9 7252
r 3.130193 1 2 cbr 500 ------- 9 15.1 5.0 9 7270
r 3.130473 3 5 cbr 500 ------- 8 14.1 5.0 9 7268
r 3.130533 2 3 cbr 500 ------- 9 15.1 5.0 9 7270
r 3.130593 1 2 cbr 500 ------- 0 6.1 5.0 9 7252
r 3.130873 3 5 cbr 500 ------- 9 15.1 5.0 9 7270
r 3.130933 2 3 cbr 500 ------- 0 6.1 5.0 9 7252
r 3.131273 3 5 cbr 500 ------- 0 6.1 5.0 9 7252
r 3.144729 6 0 cbr 1000 ------- 0 6.1 5.0 10 7311
r 3.144729 7 0 cbr 1000 ------- 1 7.1 5.0 10 7313
r 3.144729 8 0 cbr 1000 ------- 2 8.1 5.0 10 7315
r 3.144729 9 0 cbr 1000 ------- 3 9.1 5.0 10 7317
r 3.144729 10 0 cbr 1000 ------- 4 10.1 5.0 10 7319
r 3.144729 11 0 cbr 1000 ------- 5 11.1 5.0 10 7321
r 3.144729 12 0 cbr 1000 ------- 6 12.1 5.0 10 7323
r 3.144729 13 0 cbr 1000 ------- 7 13.1 5.0 10 7325
r 3.144729 14 0 cbr 1000 ------- 8 14.1 5.0 10 7327
r 3.144729 15 0 cbr 1000 ------- 9 15.1 5.0 10 7329
r 3.145129 6 0 cbr 500 ------- 0 6.1 5.0 11 7312
r 3.145129 7 0 cbr 500 ------- 1 7.1 5.0 11 7314
r 3.145129 8 0 cbr 500 ------- 2 8.1 5.0 11 7316
r 3.145129 9 0 cbr 500 ------- 3 9.1 5.0 11 7318
r 3.145129 10 0 cbr 500 ------- 4 10.1 5.0 11 7320
r 3.145129 11 0 cbr 500 ------- 5 11.1 5.0 11 7322
r 3.145129 12 0 cbr 500 ------- 6 12.1 5.0 11 7324
r 3.145129 13 0 cbr 500 ------- 7 13.1 5.0 11 7326
r 3.145129 14 0 cbr 500 ------- 8 14.1 5.0 11 7328
r 3.145129 15 0 cbr 500 ------- 9 15.1 5.0 11 7330
r 3.145729 0 1 cbr 1000 ------- 0 6.1 5.0 10 7311
r 3.146429 1 2 cbr 1000 ------- 0 6.1 5.0 10 7311
r 3.146529 0 1 cbr 1000 ------- 1 7.1 5.0 10 7313
r 3.146809 2 3 cbr 1000 ------- 0 6.1 5.0 10 7311
r 3.147189 3 5 cbr 1000 ------- 0 6.1 5.0 10 7311
r 3.147229 1 2 cbr 1000 ------- 1 7.1 5.0 10 7313
r 3.147329 0 1 cbr 1000 ------- 2 8.1 5.0 10 7315
r 3.147609 2 3 cbr 1000 ------- 1 7.1 5.0 10 7313
r 3.147989 3 5 cbr 1000 ------- 1 7.1 5.0 10 7313
r 3.148029 1 2 cbr 1000 ------- 2 8.1 5.0 10 7315
r 3.148129 0 1 cbr 1000 ------- 3 9.1 5.0 10 7317
r 3.148409 2 3 cbr 1000 ------- 2 8.1 5.0 10 7315
r 3.148789 3 5 cbr 1000 ------- 2 8.1 5.0 10 7315
r 3.148829 1 2 cbr 1000 ------- 3 9.1 5.0 10 7317
r 3.148929 0 1 cbr 1000 ------- 4 10.1 5.0 10 7319
r 3.149209 2 3 cbr 1000 ------- 3 9.1 5.0 10 7317
r 3.149589 3 5 cbr 1000 ------- 3 9.1 5.0 10 7317
r 3.149629 1 2 cbr 1000 ------- 4 10.1 5.0 10 7319
r 3.149729 0 1 cbr 1000 ------- 5 11.1 5.0 10 7321
r 3.150009 2 3 cbr 1000 ------- 4 10.1 5.0 10 7319
r 3.150389 3 5 cbr 1000 ------- 4 10.1 5.0 10 7319
r 3.150429 1 2 cbr 1000 ------- 5 11.1 5.0 10 7321
r 3.150529 0 1 cbr 1000 ------- 6 12.1 5.0 10 7323
r 3.150809 2 3 cbr 1000 ------- 5 11.1 5.0 10 7321
r 3.151189 3 5 cbr 1000 ------- 5 11.1 5.0 10 7321
r 3.151229 1 2 cbr 1000 ------- 6 12.1 5.0 10 7323
r 3.151329 0 1 cbr 1000 ------- 7 13.1 5.0 10 7325
r 3.151609 2 3 cbr 1000 ------- 6 12.1 5.0 10 7323
r 3.151989 3 5 cbr 1000 ------- 6 12.1 5.0 10 7323
r 3.152029 1 2 cbr 1000 ------- 7 13.1 5.0 10 7325
r 3.152129 0 1 cbr 1000 ------- 8 14.1 5.0 10 7327
r 3.152409 2 3 cbr 1000 ------- 7 13.1 5.0 10 7325
r 3.152789 3 5 cbr 1000 ------- 7 13.1 5.0 10 7325
r 3.152829 1 2 cbr 1000 ------- 8 14.1 5.0 10 7327
r 3.152929 0 1 cbr 1000 ------- 9 15.1 5.0 10 7329
r 3.153209 2 3 cbr 1000 ------- 8 14.1 5.0 10 7327
r 3.153329 0 1 cbr 500 ------- 0 6.1 5.0 11 7312
r 3.153589 3 5 cbr 1000 ------- 8 14.1 5.0 10 7327
r 3.153629 1 2 cbr 1000 ------- 9 15.1 5.0 10 7329
r 3.153729 0 1 cbr 500 ------- 1 7.1 5.0 11 7314
r 3.153879 1 2 cbr 500 ------- 0 6.1 5.0 11 7312
r 3.154009 2 3 cbr 1000 ------- 9 15.1 5.0 10 7329
r 3.154129 0 1 cbr 500 ------- 2 8.1 5.0 11 7316
r 3.154179 1 2 cbr 500 ------- 1 7.1 5.0 11 7314
r 3.154219 2 3 cbr 500 ------- 0 6.1 5.0 11 7312
r 3.154389 3 5 cbr 1000 ------- 9 15.1 5.0 10 7329
r 3.154519 2 3 cbr 500 ------- 1 7.1 5.0 11 7314
r 3.154529 0 1 cbr 500 ------- 3 9.1 5.0 11 7318
r 3.154559 3 5 cbr 500 ------- 0 6.1 5.0 11 7312
r 3.154579 1 2 cbr 500 ------- 2 8.1 5.0 11 7316
r 3.154859 3 5 cbr 500 ------- 1 7.1 5.0 11 7314
r 3.154919 2 3 cbr 500 ------- 2 8.1 5.0 11 7316
r 3.154929 0 1 cbr 500 ------- 4 10.1 5.0 11 7320
r 3.154979 1 2 cbr 500 ------- 3 9.1 5.0 11 7318
r 3.155259 3 5 cbr 500 ------- 2 8.1 5.0 11 7316
r 3.155319 2 3 cbr 500 ------- 3 9.1 5.0 11 7318
r 3.155329 0 1 cbr 500 ------- 5 11.1 5.0 11 7322
r 3.155379 1 2 cbr 500 ------- 4 10.1 5.0 11 7320
r 3.155659 3 5 cbr 500 ------- 3 9.1 5.0 11 7318
r 3.155719 2 3 cbr 500 ------- 4 10.1 5.0 11 7320
r 3.155729 0 1 cbr 500 ------- 6 12.1 5.0 11 7324
r 3.155779 1 2 cbr 500 ------- 5 11.1 5.0 11 7322
r 3.156059 3 5 cbr 500 ------- 4 10.1 5.0 11 7320
r 3.156119 2 3 cbr 500 ------- 5 11.1 5.0 11 7322
r 3.156129 0 1 cbr 500 ------- 7 13.1 5.0 11 7326
r 3.156179 1 2 cbr 500 ------- 6 12.1 5.0 11 7324
r 3.156459 3 5 cbr 500 ------- 5 11.1 5.0 11 7322
r 3.156519 2 3 cbr 500 ------- 6 12.1 5.0 11 7324
r 3.156529 0 1 cbr 500 ------- 8 14.1 5.0 11 7328
r 3.156579 1 2 cbr 500 ------- 7 13.1 5.0 11 7326
r 3.156859 3 5 cbr 500 ------- 6 12.1 5.0 11 7324
r 3.156919 2 3 cbr 500 ------- 7 13.1 5.0 11 7326
r 3.156929 0 1 cbr 500 ------- 9 15.1 5.0 11 7330
r 3.156979 1 2 cbr 500 ------- 8 14.1 5.0 11 7328
r 3.157259 3 5 cbr 500 ------- 7 13.1 5.0 11 7326
r 3.157319 2 3 cbr 500 ------- 8 14.1 5.0 11 7328
r 3.157379 1 2 cbr 500 ------- 9 15.1 5.0 11 7330
r 3.157659 3 5 cbr 500 ------- 8 14.1 5.0 11 7328
r 3.157719 2 3 cbr 500 ------- 9 15.1 5.0 11 7330
r 3.158059 3 5 cbr 500 ------- 9 15.1 5.0 11 7330
r 3.171514 6 0 cbr 1000 ------- 0 6.1 5.0 12 7384
r 3.171514 7 0 cbr 1000 ------- 1 7.1 5.0 12 7386
r 3.171514 8 0 cbr 1000 ------- 2 8.1 5.0 12 7388
r 3.171514 9 0 cbr 1000 ------- 3 9.1 5.0 12 7390
r 3.171514 10 0 cbr 1000 ------- 4 10.1 5.0 12 7392
r 3.171514 11 0 cbr 1000 ------- 5 11.1 5.0 12 7394
r 3.171514 12 0 cbr 1000 ------- 6 12.1 5.0 12 7396
r 3.171514 13 0 cbr 1000 ------- 7 13.1 5.0 12 7398
r 3.171514 14 0 cbr 1000 ------- 8 14.1 5.0 12 7400
r 3.171514 15 0 cbr 1000 ------- 9 15.1 5.0 12 7402