r 3.0108 6 0 cbr 1000 ------- 0 6.1 5.0 0 6570
r 3.0108 7 0 cbr 1000 ------- 1 7.1 5.0 0 6572
r 3.0108 8 0 cbr 1000 ------- 2 8.1 5.0 0 6574
r 3.0108 9 0 cbr 1000 ------- 3 9.1 5.0 0 6576
r 3.0108 10 0 cbr 1000 ------- 4 10.1 5.0 0 6578
r 3.0112 6 0 cbr 500 ------- 0 6.1 5.0 1 6571
r 3.0112 7 0 cbr 500 ------- 1 7.1 5.0 1 6573
r 3.0112 8 0 cbr 500 ------- 2 8.1 5.0 1 6575
r 3.0112 9 0 cbr 500 ------- 3 9.1 5.0 1 6577
r 3.0112 10 0 cbr 500 ------- 4 10.1 5.0 1 6579
r 3.0118 0 1 cbr 1000 ------- 0 6.1 5.0 0 6570
r 3.0125 1 2 cbr 1000 ------- 0 6.1 5.0 0 6570
r 3.0126 0 1 cbr 1000 ------- 1 7.1 5.0 0 6572
r 3.01288 2 3 cbr 1000 ------- 0 6.1 5.0 0 6570
r 3.01326 3 5 cbr 1000 ------- 0 6.1 5.0 0 6570
r 3.0133 1 2 cbr 1000 ------- 1 7.1 5.0 0 6572
r 3.0134 0 1 cbr 1000 ------- 2 8.1 5.0 0 6574
r 3.01368 2 3 cbr 1000 ------- 1 7.1 5.0 0 6572
r 3.01406 3 5 cbr 1000 ------- 1 7.1 5.0 0 6572
r 3.0141 1 2 cbr 1000 ------- 2 8.1 5.0 0 6574
r 3.0142 0 1 cbr 1000 ------- 3 9.1 5.0 0 6576
r 3.01448 2 3 cbr 1000 ------- 2 8.1 5.0 0 6574
r 3.01486 3 5 cbr 1000 ------- 2 8.1 5.0 0 6574
r 3.0149 1 2 cbr 1000 ------- 3 9.1 5.0 0 6576
r 3.015 0 1 cbr 1000 ------- 4 10.1 5.0 0 6578
r 3.01528 2 3 cbr 1000 ------- 3 9.1 5.0 0 6576
r 3.0154 0 1 cbr 500 ------- 0 6.1 5.0 1 6571
r 3.01566 3 5 cbr 1000 ------- 3 9.1 5.0 0 6576
r 3.0157 1 2 cbr 1000 ------- 4 10.1 5.0 0 6578
r 3.0158 0 1 cbr 500 ------- 1 7.1 5.0 1 6573
r 3.01595 1 2 cbr 500 ------- 0 6.1 5.0 1 6571
r 3.01608 2 3 cbr 1000 ------- 4 10.1 5.0 0 6578
r 3.0162 0 1 cbr 500 ------- 2 8.1 5.0 1 6575
r 3.01625 1 2 cbr 500 ------- 1 7.1 5.0 1 6573
r 3.01629 2 3 cbr 500 ------- 0 6.1 5.0 1 6571
r 3.01646 3 5 cbr 1000 ------- 4 10.1 5.0 0 6578
r 3.01659 2 3 cbr 500 ------- 1 7.1 5.0 1 6573
r 3.0166 0 1 cbr 500 ------- 3 9.1 5.0 1 6577
r 3.01663 3 5 cbr 500 ------- 0 6.1 5.0 1 6571
r 3.01665 1 2 cbr 500 ------- 2 8.1 5.0 1 6575
r 3.01693 3 5 cbr 500 ------- 1 7.1 5.0 1 6573
r 3.01699 2 3 cbr 500 ------- 2 8.1 5.0 1 6575
r 3.017 0 1 cbr 500 ------- 4 10.1 5.0 1 6579
r 3.01705 1 2 cbr 500 ------- 3 9.1 5.0 1 6577
r 3.01733 3 5 cbr 500 ------- 2 8.1 5.0 1 6575
r 3.01739 2 3 cbr 500 ------- 3 9.1 5.0 1 6577
r 3.01745 1 2 cbr 500 ------- 4 10.1 5.0 1 6579
r 3.01773 3 5 cbr 500 ------- 3 9.1 5.0 1 6577
r 3.01779 2 3 cbr 500 ------- 4 10.1 5.0 1 6579
r 3.01813 3 5 cbr 500 ------- 4 10.1 5.0 1 6579
r 3.037586 6 0 cbr 1000 ------- 0 6.1 5.0 2 6648
r 3.037586 7 0 cbr 1000 ------- 1 7.1 5.0 2 6650
r 3.037586 8 0 cbr 1000 ------- 2 8.1 5.0 2 6652
r 3.037586 9 0 cbr 1000 ------- 3 9.1 5.0 2 6654
r 3.037586 10 0 cbr 1000 ------- 4 10.1 5.0 2 6656
r 3.037986 6 0 cbr 500 ------- 0 6.1 5.0 3 6649
r 3.037986 7 0 cbr 500 ------- 1 7.1 5.0 3 6651
r 3.037986 8 0 cbr 500 ------- 2 8.1 5.0 3 6653
r 3.037986 9 0 cbr 500 ------- 3 9.1 5.0 3 6655
r 3.037986 10 0 cbr 500 ------- 4 10.1 5.0 3 6657
r 3.038586 0 1 cbr 1000 ------- 0 6.1 5.0 2 6648
r 3.039286 1 2 cbr 1000 ------- 0 6.1 5.0 2 6648
r 3.039386 0 1 cbr 1000 ------- 1 7.1 5.0 2 6650
r 3.039666 2 3 cbr 1000 ------- 0 6.1 5.0 2 6648
r 3.040046 3 5 cbr 1000 ------- 0 6.1 5.0 2 6648
r 3.040086 1 2 cbr 1000 ------- 1 7.1 5.0 2 6650
r 3.040186 0 1 cbr 1000 ------- 2 8.1 5.0 2 6652
r 3.040466 2 3 cbr 1000 ------- 1 7.1 5.0 2 6650
r 3.040846 3 5 cbr 1000 ------- 1 7.1 5.0 2 6650
r 3.040886 1 2 cbr 1000 ------- 2 8.1 5.0 2 6652
r 3.040986 0 1 cbr 1000 ------- 3 9.1 5.0 2 6654
r 3.041266 2 3 cbr 1000 ------- 2 8.1 5.0 2 6652
r 3.041646 3 5 cbr 1000 ------- 2 8.1 5.0 2 6652
r 3.041686 1 2 cbr 1000 ------- 3 9.1 5.0 2 6654
r 3.041786 0 1 cbr 1000 ------- 4 10.1 5.0 2 6656
r 3.042066 2 3 cbr 1000 ------- 3 9.1 5.0 2 6654
r 3.042186 0 1 cbr 500 ------- 0 6.1 5.0 3 6649
r 3.042446 3 5 cbr 1000 ------- 3 9.1 5.0 2 6654
r 3.042486 1 2 cbr 1000 ------- 4 10.1 5.0 2 6656
r 3.042586 0 1 cbr 500 ------- 1 7.1 5.0 3 6651
r 3.042736 1 2 cbr 500 ------- 0 6.1 5.0 3 6649
r 3.042866 2 3 cbr 1000 ------- 4 10.1 5.0 2 6656
r 3.042986 0 1 cbr 500 ------- 2 8.1 5.0 3 6653
r 3.043036 1 2 cbr 500 ------- 1 7.1 5.0 3 6651
r 3.043076 2 3 cbr 500 ------- 0 6.1 5.0 3 6649
r 3.043246 3 5 cbr 1000 ------- 4 10.1 5.0 2 6656
r 3.043376 2 3 cbr 500 ------- 1 7.1 5.0 3 6651
r 3.043386 0 1 cbr 500 ------- 3 9.1 5.0 3 6655
r 3.043416 3 5 cbr 500 ------- 0 6.1 5.0 3 6649
r 3.043436 1 2 cbr 500 ------- 2 8.1 5.0 3 6653
r 3.043716 3 5 cbr 500 ------- 1 7.1 5.0 3 6651
r 3.043776 2 3 cbr 500 ------- 2 8.1 5.0 3 6653
r 3.043786 0 1 cbr 500 ------- 4 10.1 5.0 3 6657
r 3.043836 1 2 cbr 500 ------- 3 9.1 5.0 3 6655
r 3.044116 3 5 cbr 500 ------- 2 8.1 5.0 3 6653
r 3.044176 2 3 cbr 500 ------- 3 9.1 5.0 3 6655
r 3.044236 1 2 cbr 500 ------- 4 10.1 5.0 3 6657
r 3.044516 3 5 cbr 500 ------- 3 9.1 5.0 3 6655
r 3.044576 2 3 cbr 500 ------- 4 10.1 5.0 3 6657
r 3.044916 3 5 cbr 500 ------- 4 10.1 5.0 3 6657
r 3.064371 6 0 cbr 1000 ------- 0 6.1 5.0 4 6725
r 3.064371 7 0 cbr 1000 ------- 1 7.1 5.0 4 6727
r 3.064371 8 0 cbr 1000 ------- 2 8.1 5.0 4 6729
r 3.064371 9 0 cbr 1000 ------- 3 9.1 5.0 4 6731
r 3.064371 10 0 cbr 1000 ------- 4 10.1 5.0 4 6733
r 3.064771 6 0 cbr 500 ------- 0 6.1 5.0 5 6726
r 3.064771 7 0 cbr 500 ------- 1 7.1 5.0 5 6728
r 3.064771 8 0 cbr 500 ------- 2 8.1 5.0 5 6730
r 3.064771 9 0 cbr 500 ------- 3 9.1 5.0 5 6732
r 3.064771 10 0 cbr 500 ------- 4 10.1 5.0 5 6734
r 3.065371 0 1 cbr 1000 ------- 0 6.1 5.0 4 6725
r 3.066071 1 2 cbr 1000 ------- 0 6.1 5.0 4 6725
r 3.066171 0 1 cbr 1000 ------- 1 7.1 5.0 4 6727
r 3.066451 2 3 cbr 1000 ------- 0 6.1 5.0 4 6725
r 3.066831 3 5 cbr 1000 ------- 0 6.1 5.0 4 6725
r 3.066871 1 2 cbr 1000 ------- 1 7.1 5.0 4 6727
r 3.066971 0 1 cbr 1000 ------- 2 8.1 5.0 4 6729
r 3.067251 2 3 cbr 1000 ------- 1 7.1 5.0 4 6727
r 3.067631 3 5 cbr 1000 ------- 1 7.1 5.0 4 6727
r 3.067671 1 2 cbr 1000 ------- 2 8.1 5.0 4 6729
r 3.067771 0 1 cbr 1000 ------- 3 9.1 5.0 4 6731
r 3.068051 2 3 cbr 1000 ------- 2 8.1 5.0 4 6729
r 3.068431 3 5 cbr 1000 ------- 2 8.1 5.0 4 6729
r 3.068471 1 2 cbr 1000 ------- 3 9.1 5.0 4 6731
r 3.068571 0 1 cbr 1000 ------- 4 10.1 5.0 4 6733
r 3.068851 2 3 cbr 1000 ------- 3 9.1 5.0 4 6731
r 3.068971 0 1 cbr 500 ------- 0 6.1 5.0 5 6726
r 3.069231 3 5 cbr 1000 ------- 3 9.1 5.0 4 6731
r 3.069271 1 2 cbr 1000 ------- 4 10.1 5.0 4 6733
r 3.069371 0 1 cbr 500 ------- 1 7.1 5.0 5 6728
r 3.069521 1 2 cbr 500 ------- 0 6.1 5.0 5 6726
r 3.069651 2 3 cbr 1000 ------- 4 10.1 5.0 4 6733
r 3.069771 0 1 cbr 500 ------- 2 8.1 5.0 5 6730
r 3.069821 1 2 cbr 500 ------- 1 7.1 5.0 5 6728
r 3.069861 2 3 cbr 500 ------- 0 6.1 5.0 5 6726
r 3.070031 3 5 cbr 1000 ------- 4 10.1 5.0 4 6733
r 3.070161 2 3 cbr 500 ------- 1 7.1 5.0 5 6728
r 3.070171 0 1 cbr 500 ------- 3 9.1 5.0 5 6732
r 3.070201 3 5 cbr 500 ------- 0 6.1 5.0 5 6726
r 3.070221 1 2 cbr 500 ------- 2 8.1 5.0 5 6730
r 3.070501 3 5 cbr 500 ------- 1 7.1 5.0 5 6728
r 3.070561 2 3 cbr 500 ------- 2 8.1 5.0 5 6730
r 3.070571 0 1 cbr 500 ------- 4 10.1 5.0 5 6734
r 3.070621 1 2 cbr 500 ------- 3 9.1 5.0 5 6732
r 3.070901 3 5 cbr 500 ------- 2 8.1 5.0 5 6730
r 3.070961 2 3 cbr 500 ------- 3 9.1 5.0 5 6732
r 3.071021 1 2 cbr 500 ------- 4 10.1 5.0 5 6734
r 3.071301 3 5 cbr 500 ------- 3 9.1 5.0 5 6732
r 3.071361 2 3 cbr 500 ------- 4 10.1 5.0 5 6734
r 3.071701 3 5 cbr 500 ------- 4 10.1 5.0 5 6734
r 3.091157 6 0 cbr 1000 ------- 0 6.1 5.0 6 6803
r 3.091157 7 0 cbr 1000 ------- 1 7.1 5.0 6 6805
r 3.091157 8 0 cbr 1000 ------- 2 8.1 5.0 6 6807
r 3.091157 9 0 cbr 1000 ------- 3 9.1 5.0 6 6809
r 3.091157 10 0 cbr 1000 ------- 4 10.1 5.0 6 6811
r 3.091557 6 0 cbr 500 ------- 0 6.1 5.0 7 6804
r 3.091557 7 0 cbr 500 ------- 1 7.1 5.0 7 6806
r 3.091557 8 0 cbr 500 ------- 2 8.1 5.0 7 6808
r 3.091557 9 0 cbr 500 ------- 3 9.1 5.0 7 6810
r 3.091557 10 0 cbr 500 ------- 4 10.1 5.0 7 6812
r 3.092157 0 1 cbr 1000 ------- 0 6.1 5.0 6 6803
r 3.092857 1 2 cbr 1000 ------- 0 6.1 5.0 6 6803
r 3.092957 0 1 cbr 1000 ------- 1 7.1 5.0 6 6805
r 3.093237 2 3 cbr 1000 ------- 0 6.1 5.0 6 6803
r 3.093617 3 5 cbr 1000 ------- 0 6.1 5.0 6 6803
r 3.093657 1 2 cbr 1000 ------- 1 7.1 5.0 6 6805
r 3.093757 0 1 cbr 1000 ------- 2 8.1 5.0 6 6807
r 3.094037 2 3 cbr 1000 ------- 1 7.1 5.0 6 6805
r 3.094417 3 5 cbr 1000 ------- 1 7.1 5.0 6 6805
r 3.094457 1 2 cbr 1000 ------- 2 8.1 5.0 6 6807
r 3.094557 0 1 cbr 1000 ------- 3 9.1 5.0 6 6809
r 3.094837 2 3 cbr 1000 ------- 2 8.1 5.0 6 6807
r 3.095217 3 5 cbr 1000 ------- 2 8.1 5.0 6 6807
r 3.095257 1 2 cbr 1000 ------- 3 9.1 5.0 6 6809
r 3.095357 0 1 cbr 1000 ------- 4 10.1 5.0 6 6811
r 3.095637 2 3 cbr 1000 ------- 3 9.1 5.0 6 6809
r 3.095757 0 1 cbr 500 ------- 0 6.1 5.0 7 6804
r 3.096017 3 5 cbr 1000 ------- 3 9.1 5.0 6 6809
r 3.096057 1 2 cbr 1000 ------- 4 10.1 5.0 6 6811
r 3.096157 0 1 cbr 500 ------- 1 7.1 5.0 7 6806
r 3.096307 1 2 cbr 500 ------- 0 6.1 5.0 7 6804
r 3.096437 2 3 cbr 1000 ------- 4 10.1 5.0 6 6811
r 3.096557 0 1 cbr 500 ------- 2 8.1 5.0 7 6808
r 3.096607 1 2 cbr 500 ------- 1 7.1 5.0 7 6806
r 3.096647 2 3 cbr 500 ------- 0 6.1 5.0 7 6804
r 3.096817 3 5 cbr 1000 ------- 4 10.1 5.0 6 6811
r 3.096947 2 3 cbr 500 ------- 1 7.1 5.0 7 6806
r 3.096957 0 1 cbr 500 ------- 3 9.1 5.0 7 6810
r 3.096987 3 5 cbr 500 ------- 0 6.1 5.0 7 6804
r 3.097007 1 2 cbr 500 ------- 2 8.1 5.0 7 6808
r 3.097287 3 5 cbr 500 ------- 1 7.1 5.0 7 6806
r 3.097347 2 3 cbr 500 ------- 2 8.1 5.0 7 6808
r 3.097357 0 1 cbr 500 ------- 4 10.1 5.0 7 6812
r 3.097407 1 2 cbr 500 ------- 3 9.1 5.0 7 6810
r 3.097687 3 5 cbr 500 ------- 2 8.1 5.0 7 6808
r 3.097747 2 3 cbr 500 ------- 3 9.1 5.0 7 6810
r 3.097807 1 2 cbr 500 ------- 4 10.1 5.0 7 6812
r 3.098087 3 5 cbr 500 ------- 3 9.1 5.0 7 6810
r 3.098147 2 3 cbr 500 ------- 4 10.1 5.0 7 6812
r 3.098487 3 5 cbr 500 ------- 4 10.1 5.0 7 6812
r 3.117943 6 0 cbr 1000 ------- 0 6.1 5.0 8 6880
r 3.117943 8 0 cbr 1000 ------- 2 8.1 5.0 8 6884
r 3.117943 9 0 cbr 1000 ------- 3 9.1 5.0 8 6886
r 3.117943 10 0 cbr 1000 ------- 4 10.1 5.0 8 6888
r 3.117954 7 0 cbr 1000 ------- 1 7.1 5.0 8 6882
r 3.118343 6 0 cbr 500 ------- 0 6.1 5.0 9 6881
r 3.118343 8 0 cbr 500 ------- 2 8.1 5.0 9 6885
r 3.118343 9 0 cbr 500 ------- 3 9.1 5.0 9 6887
r 3.118343 10 0 cbr 500 ------- 4 10.1 5.0 9 6889
r 3.118354 7 0 cbr 500 ------- 1 7.1 5.0 9 6883
r 3.118943 0 1 cbr 1000 ------- 0 6.1 5.0 8 6880
r 3.119643 1 2 cbr 1000 ------- 0 6.1 5.0 8 6880
r 3.119743 0 1 cbr 1000 ------- 2 8.1 5.0 8 6884
r 3.120023 2 3 cbr 1000 ------- 0 6.1 5.0 8 6880
r 3.120403 3 5 cbr 1000 ------- 0 6.1 5.0 8 6880
r 3.120443 1 2 cbr 1000 ------- 2 8.1 5.0 8 6884
r 3.120543 0 1 cbr 1000 ------- 3 9.1 5.0 8 6886
r 3.120823 2 3 cbr 1000 ------- 2 8.1 5.0 8 6884
r 3.121203 3 5 cbr 1000 ------- 2 8.1 5.0 8 6884
r 3.121243 1 2 cbr 1000 ------- 3 9.1 5.0 8 6886
r 3.121343 0 1 cbr 1000 ------- 4 10.1 5.0 8 6888
r 3.121623 2 3 cbr 1000 ------- 3 9.1 5.0 8 6886
r 3.122003 3 5 cbr 1000 ------- 3 9.1 5.0 8 6886
r 3.122043 1 2 cbr 1000 ------- 4 10.1 5.0 8 6888
r 3.122143 0 1 cbr 1000 ------- 1 7.1 5.0 8 6882
r 3.122423 2 3 cbr 1000 ------- 4 10.1 5.0 8 6888
r 3.122543 0 1 cbr 500 ------- 0 6.1 5.0 9 6881
r 3.122803 3 5 cbr 1000 ------- 4 10.1 5.0 8 6888
r 3.122843 1 2 cbr 1000 ------- 1 7.1 5.0 8 6882
r 3.122943 0 1 cbr 500 ------- 2 8.1 5.0 9 6885
r 3.123093 1 2 cbr 500 ------- 0 6.1 5.0 9 6881
r 3.123223 2 3 cbr 1000 ------- 1 7.1 5.0 8 6882
r 3.123343 0 1 cbr 500 ------- 3 9.1 5.0 9 6887
r 3.123393 1 2 cbr 500 ------- 2 8.1 5.0 9 6885
r 3.123433 2 3 cbr 500 ------- 0 6.1 5.0 9 6881
r 3.123603 3 5 cbr 1000 ------- 1 7.1 5.0 8 6882
r 3.123733 2 3 cbr 500 ------- 2 8.1 5.0 9 6885
r 3.123743 0 1 cbr 500 ------- 4 10.1 5.0 9 6889
r 3.123773 3 5 cbr 500 ------- 0 6.1 5.0 9 6881
r 3.123793 1 2 cbr 500 ------- 3 9.1 5.0 9 6887
r 3.124073 3 5 cbr 500 ------- 2 8.1 5.0 9 6885
r 3.124133 2 3 cbr 500 ------- 3 9.1 5.0 9 6887
r 3.124143 0 1 cbr 500 ------- 1 7.1 5.0 9 6883
r 3.124193 1 2 cbr 500 ------- 4 10.1 5.0 9 6889
r 3.124473 3 5 cbr 500 ------- 3 9.1 5.0 9 6887
r 3.124533 2 3 cbr 500 ------- 4 10.1 5.0 9 6889
r 3.124593 1 2 cbr 500 ------- 1 7.1 5.0 9 6883
r 3.124873 3 5 cbr 500 ------- 4 10.1 5.0 9 6889
r 3.124933 2 3 cbr 500 ------- 1 7.1 5.0 9 6883
r 3.125273 3 5 cbr 500 ------- 1 7.1 5.0 9 6883
r 3.144729 6 0 cbr 1000 ------- 0 6.1 5.0 10 6957
r 3.144729 7 0 cbr 1000 ------- 1 7.1 5.0 10 6959
r 3.144729 8 0 cbr 1000 ------- 2 8.1 5.0 10 6961
r 3.144729 9 0 cbr 1000 ------- 3 9.1 5.0 10 6963
r 3.144729 10 0 cbr 1000 ------- 4 10.1 5.0 10 6965
r 3.145129 6 0 cbr 500 ------- 0 6.1 5.0 11 6958
r 3.145129 7 0 cbr 500 ------- 1 7.1 5.0 11 6960
r 3.145129 8 0 cbr 500 ------- 2 8.1 5.0 11 6962
r 3.145129 9 0 cbr 500 ------- 3 9.1 5.0 11 6964
r 3.145129 10 0 cbr 500 ------- 4 10.1 5.0 11 6966
r 3.145729 0 1 cbr 1000 ------- 0 6.1 5.0 10 6957
r 3.146429 1 2 cbr 1000 ------- 0 6.1 5.0 10 6957
r 3.146529 0 1 cbr 1000 ------- 1 7.1 5.0 10 6959
r 3.146809 2 3 cbr 1000 ------- 0 6.1 5.0 10 6957
r 3.147189 3 5 cbr 1000 ------- 0 6.1 5.0 10 6957
r 3.147229 1 2 cbr 1000 ------- 1 7.1 5.0 10 6959
r 3.147329 0 1 cbr 1000 ------- 2 8.1 5.0 10 6961
r 3.147609 2 3 cbr 1000 ------- 1 7.1 5.0 10 6959
r 3.147989 3 5 cbr 1000 ------- 1 7.1 5.0 10 6959
r 3.148029 1 2 cbr 1000 ------- 2 8.1 5.0 10 6961
r 3.148129 0 1 cbr 1000 ------- 3 9.1 5.0 10 6963
r 3.148409 2 3 cbr 1000 ------- 2 8.1 5.0 10 6961
r 3.148789 3 5 cbr 1000 ------- 2 8.1 5.0 10 6961
r 3.148829 1 2 cbr 1000 ------- 3 9.1 5.0 10 6963
r 3.148929 0 1 cbr 1000 ------- 4 10.1 5.0 10 6965
r 3.149209 2 3 cbr 1000 ------- 3 9.1 5.0 10 6963
r 3.149329 0 1 cbr 500 ------- 0 6.1 5.0 11 6958
r 3.149589 3 5 cbr 1000 ------- 3 9.1 5.0 10 6963
r 3.149629 1 2 cbr 1000 ------- 4 10.1 5.0 10 6965
r 3.149729 0 1 cbr 500 ------- 1 7.1 5.0 11 6960
r 3.149879 1 2 cbr 500 ------- 0 6.1 5.0 11 6958
r 3.150009 2 3 cbr 1000 ------- 4 10.1 5.0 10 6965
r 3.150129 0 1 cbr 500 ------- 2 8.1 5.0 11 6962
r 3.150179 1 2 cbr 500 ------- 1 7.1 5.0 11 6960
r 3.150219 2 3 cbr 500 ------- 0 6.1 5.0 11 6958
r 3.150389 3 5 cbr 1000 ------- 4 10.1 5.0 10 6965
r 3.150519 2 3 cbr 500 ------- 1 7.1 5.0 11 6960
r 3.150529 0 1 cbr 500 ------- 3 9.1 5.0 11 6964
r 3.150559 3 5 cbr 500 ------- 0 6.1 5.0 11 6958
r 3.150579 1 2 cbr 500 ------- 2 8.1 5.0 11 6962
r 3.150859 3 5 cbr 500 ------- 1 7.1 5.0 11 6960
r 3.150919 2 3 cbr 500 ------- 2 8.1 5.0 11 6962
r 3.150929 0 1 cbr 500 ------- 4 10.1 5.0 11 6966
r 3.150979 1 2 cbr 500 ------- 3 9.1 5.0 11 6964
r 3.151259 3 5 cbr 500 ------- 2 8.1 5.0 11 6962
r 3.151319 2 3 cbr 500 ------- 3 9.1 5.0 11 6964
r 3.151379 1 2 cbr 500 ------- 4 10.1 5.0 11 6966
r 3.151659 3 5 cbr 500 ------- 3 9.1 5.0 11 6964
r 3.151719 2 3 cbr 500 ------- 4 10.1 5.0 11 6966
r 3.152059 3 5 cbr 500 ------- 4 10.1 5.0 11 6966
r 3.171514 6 0 cbr 1000 ------- 0 6.1 5.0 12 7035
r 3.171514 7 0 cbr 1000 ------- 1 7.1 5.0 12 7037
r 3.171514 8 0 cbr 1000 ------- 2 8.1 5.0 12 7039
r 3.171514 9 0 cbr 1000 ------- 3 9.1 5.0 12 7041
r 3.171514 10 0 cbr 1000 ------- 4 10.1 5.0 12 7043
r 3.171914 6 0 cbr 500 ------- 0 6.1 5.0 13 7036
r 3.171914 7 0 cbr 500 ------- 1 7.1 5.0 13 7038
r 3.171914 8 0 cbr 500 ------- 2 8.1 5.0 13 7040
r 3.171914 9 0 cbr 500 ------- 3 9.1 5.0 13 7042
r 3.171914 10 0 cbr 500 ------- 4 10.1 5.0 13 7044
r 3.172514 0 1 cbr 1000 ------- 0 6.1 5.0 12 7035
r 3.173214 1 2 cbr 1000 ------- 0 6.1 5.0 12 7035
r 3.173314 0 1 cbr 1000 ------- 1 7.1 5.0 12 7037
r 3.173594 2 3 cbr 1000 ------- 0 6.1 5.0 12 7035
r 3.173974 3 5 cbr 1000 ------- 0 6.1 5.0 12 7035
r 3.174014 1 2 cbr 1000 ------- 1 7.1 5.0 12 7037
r 3.174114 0 1 cbr 1000 ------- 2 8.1 5.0 12 7039
r 3.174394 2 3 cbr 1000 ------- 1 7.1 5.0 12 7037
r 3.174774 3 5 cbr 1000 ------- 1 7.1 5.0 12 7037
r 3.174814 1 2 cbr 1000 ------- 2 8.1 5.0 12 7039
r 3.174914 0 1 cbr 1000 ------- 3 9.1 5.0 12 7041
r 3.175194 2 3 cbr 1000 ------- 2 8.1 5.0 12 7039
r 3.175574 3 5 cbr 1000 ------- 2 8.1 5.0 12 7039
r 3.175614 1 2 cbr 1000 ------- 3 9.1 5.0 12 7041
r 3.175714 0 1 cbr 1000 ------- 4 10.1 5.0 12 7043
r 3.175994 2 3 cbr 1000 ------- 3 9.1 5.0 12 7041
r 3.176114 0 1 cbr 500 ------- 0 6.1 5.0 13 7036
r 3.176374 3 5 cbr 1000 ------- 3 9.1 5.0 12 7041
r 3.176414 1 2 cbr 1000 ------- 4 10.1 5.0 12 7043
r 3.176514 0 1 cbr 500 ------- 1 7.1 5.0 13 7038
r 3.176664 1 2 cbr 500 ------- 0 6.1 5.0 13 7036
r 3.176794 2 3 cbr 1000 ------- 4 10.1 5.0 12 7043
r 3.176914 0 1 cbr 500 ------- 2 8.1 5.0 13 7040
r 3.176964 1 2 cbr 500 ------- 1 7.1 5.0 13 7038
r 3.177004 2 3 cbr 500 ------- 0 6.1 5.0 13 7036
r 3.177174 3 5 cbr 1000 ------- 4 10.1 5.0 12 7043
r 3.177304 2 3 cbr 500 ------- 1 7.1 5.0 13 7038
r 3.177314 0 1 cbr 500 ------- 3 9.1 5.0 13 7042
r 3.177344 3 5 cbr 500 ------- 0 6.1 5.0 13 7036
r 3.177364 1 2 cbr 500 ------- 2 8.1 5.0 13 7040
r 3.177644 3 5 cbr 500 ------- 1 7.1 5.0 13 7038
r 3.177704 2 3 cbr 500 ------- 2 8.1 5.0 13 7040
r 3.177714 0 1 cbr 500 ------- 4 10.1 5.0 13 7044
r 3.177764 1 2 cbr 500 ------- 3 9.1 5.0 13 7042
r 3.178044 3 5 cbr 500 ------- 2 8.1 5.0 13 7040
r 3.178104 2 3 cbr 500 ------- 3 9.1 5.0 13 7042
r 3.178164 1 2 cbr 500 ------- 4 10.1 5.0 13 7044
r 3.178444 3 5 cbr 500 ------- 3 9.1 5.0 13 7042
r 3.178504 2 3 cbr 500 ------- 4 10.1 5.0 13 7044
r 3.178844 3 5 cbr 500 ------- 4 10.1 5.0 13 7044
r 3.1983 6 0 cbr 1000 ------- 0 6.1 5.0 14 7111
r 3.1983 7 0 cbr 1000 ------- 1 7.1 5.0 14 7113
r 3.1983 8 0 cbr 1000 ------- 2 8.1 5.0 14 7115
r 3.1983 9 0 cbr 1000 ------- 3 9.1 5.0 14 7117
r 3.1983 10 0 cbr 1000 ------- 4 10.1 5.0 14 7119
r 3.1987 6 0 cbr 500 ------- 0 6.1 5.0 15 7112
r 3.1987 7 0 cbr 500 ------- 1 7.1 5.0 15 7114
r 3.1987 8 0 cbr 500 ------- 2 8.1 5.0 15 7116
r 3.1987 9 0 cbr 500 ------- 3 9.1 5.0 15 7118
r 3.1987 10 0 cbr 500 ------- 4 10.1 5.0 15 7120
r 3.1993 0 1 cbr 1000 ------- 0 6.1 5.0 14 7111
r 3.2 1 2 cbr 1000 ------- 0 6.1 5.0 14 7111
r 3.2001 0 1 cbr 1000 ------- 1 7.1 5.0 14 7113
r 3.20038 2 3 cbr 1000 ------- 0 6.1 5.0 14 7111
r 3.20076 3 5 cbr 1000 ------- 0 6.1 5.0 14 7111
r 3.2008 1 2 cbr 1000 ------- 1 7.1 5.0 14 7113
r 3.2009 0 1 cbr 1000 ------- 2 8.1 5.0 14 7115
r 3.20118 2 3 cbr 1000 ------- 1 7.1 5.0 14 7113
r 3.20156 3 5 cbr 1000 ------- 1 7.1 5.0 14 7113
r 3.2016 1 2 cbr 1000 ------- 2 8.1 5.0 14 7115
r 3.2017 0 1 cbr 1000 ------- 3 9.1 5.0 14 7117
r 3.20198 2 3 cbr 1000 ------- 2 8.1 5.0 14 7115
r 3.20236 3 5 cbr 1000 ------- 2 8.1 5.0 14 7115
r 3.2024 1 2 cbr 1000 ------- 3 9.1 5.0 14 7117
r 3.2025 0 1 cbr 1000 ------- 4 10.1 5.0 14 7119
r 3.20278 2 3 cbr 1000 ------- 3 9.1 5.0 14 7117
r 3.2029 0 1 cbr 500 ------- 0 6.1 5.0 15 7112
r 3.20316 3 5 cbr 1000 ------- 3 9.1 5.0 14 7117
r 3.2032 1 2 cbr 1000 ------- 4 10.1 5.0 14 7119
r 3.2033 0 1 cbr 500 ------- 1 7.1 5.0 15 7114
r 3.20345 1 2 cbr 500 ------- 0 6.1 5.0 15 7112
r 3.20358 2 3 cbr 1000 ------- 4 10.1 5.0 14 7119
r 3.2037 0 1 cbr 500 ------- 2 8.1 5.0 15 7116
r 3.20375 1 2 cbr 500 ------- 1 7.1 5.0 15 7114
r 3.20379 2 3 cbr 500 ------- 0 6.1 5.0 15 7112
r 3.20396 3 5 cbr 1000 ------- 4 10.1 5.0 14 7119
r 3.20409 2 3 cbr 500 ------- 1 7.1 5.0 15 7114
r 3.2041 0 1 cbr 500 ------- 3 9.1 5.0 15 7118
r 3.20413 3 5 cbr 500 ------- 0 6.1 5.0 15 7112
r 3.20415 1 2 cbr 500 ------- 2 8.1 5.0 15 7116
r 3.20443 3 5 cbr 500 ------- 1 7.1 5.0 15 7114
r 3.20449 2 3 cbr 500 ------- 2 8.1 5.0 15 7116
r 3.2045 0 1 cbr 500 ------- 4 10.1 5.0 15 7120
r 3.20455 1 2 cbr 500 ------- 3 9.1 5.0 15 7118
r 3.20483 3 5 cbr 500 ------- 2 8.1 5.0 15 7116
r 3.20489 2 3 cbr 500 ------- 3 9.1 5.0 15 7118
r 3.20495 1 2 cbr 500 ------- 4 10.1 5.0 15 7120
r 3.20523 3 5 cbr 500 ------- 3 9.1 5.0 15 7118
r 3.20529 2 3 cbr 500 ------- 4 10.1 5.0 15 7120
r 3.20563 3 5 cbr 500 ------- 4 10.1 5.0 15 7120
r 3.225086 6 0 cbr 1000 ------- 0 6.1 5.0 16 7188
r 3.225086 7 0 cbr 1000 ------- 1 7.1 5.0 16 7190
r 3.225086 8 0 cbr 1000 ------- 2 8.1 5.0 16 7192
r 3.225086 9 0 cbr 1000 ------- 3 9.1 5.0 16 7194
r 3.225086 10 0 cbr 1000 ------- 4 10.1 5.0 16 7196
r 3.225486 6 0 cbr 500 ------- 0 6.1 5.0 17 7189
r 3.225486 7 0 cbr 500 ------- 1 7.1 5.0 17 7191
r 3.225486 8 0 cbr 500 ------- 2 8.1 5.0 17 7193
r 3.225486 9 0 cbr 500 ------- 3 9.1 5.0 17 7195
r 3.225486 10 0 cbr 500 ------- 4 10.1 5.0 17 7197
r 3.226086 0 1 cbr 1000 ------- 0 6.1 5.0 16 7188
r 3.226786 1 2 cbr 1000 ------- 0 6.1 5.0 16 7188
r 3.226886 0 1 cbr 1000 ------- 1 7.1 5.0 16 7190
r 3.227166 2 3 cbr 1000 ------- 0 6.1 5.0 16 7188
r 3.227546 3 5 cbr 1000 ------- 0 6.1 5.0 16 7188
r 3.227586 1 2 cbr 1000 ------- 1 7.1 5.0 16 7190
r 3.227686 0 1 cbr 1000 ------- 2 8.1 5.0 16 7192
r 3.227966 2 3 cbr 1000 ------- 1 7.1 5.0 16 7190
r 3.228346 3 5 cbr 1000 ------- 1 7.1 5.0 16 7190
r 3.228386 1 2 cbr 1000 ------- 2 8.1 5.0 16 7192
r 3.228486 0 1 cbr 1000 ------- 3 9.1 5.0 16 7194
r 3.228766 2 3 cbr 1000 ------- 2 8.1 5.0 16 7192
r 3.229146 3 5 cbr 1000 ------- 2 8.1 5.0 16 7192
r 3.229186 1 2 cbr 1000 ------- 3 9.1 5.0 16 7194
r 3.229286 0 1 cbr 1000 ------- 4 10.1 5.0 16 7196
r 3.229566 2 3 cbr 1000 ------- 3 9.1 5.0 16 7194
r 3.229686 0 1 cbr 500 ------- 0 6.1 5.0 17 7189
r 3.229946 3 5 cbr 1000 ------- 3 9.1 5.0 16 7194
r 3.229986 1 2 cbr 1000 ------- 4 10.1 5.0 16 7196
r 3.230086 0 1 cbr 500 ------- 1 7.1 5.0 17 7191
r 3.230236 1 2 cbr 500 ------- 0 6.1 5.0 17 7189
r 3.230366 2 3 cbr 1000 ------- 4 10.1 5.0 16 7196
r 3.230486 0 1 cbr 500 ------- 2 8.1 5.0 17 7193
r 3.230536 1 2 cbr 500 ------- 1 7.1 5.0 17 7191
r 3.230576 2 3 cbr 500 ------- 0 6.1 5.0 17 7189
r 3.230746 3 5 cbr 1000 ------- 4 10.1 5.0 16 7196
r 3.230876 2 3 cbr 500 ------- 1 7.1 5.0 17 7191
r 3.230886 0 1 cbr 500 ------- 3 9.1 5.0 17 7195
r 3.230916 3 5 cbr 500 ------- 0 6.1 5.0 17 7189
r 3.230936 1 2 cbr 500 ------- 2 8.1 5.0 17 7193
r 3.231216 3 5 cbr 500 ------- 1 7.1 5.0 17 7191
r 3.231276 2 3 cbr 500 ------- 2 8.1 5.0 17 7193
r 3.231286 0 1 cbr 500 ------- 4 10.1 5.0 17 7197
r 3.231336 1 2 cbr 500 ------- 3 9.1 5.0 17 7195
r 3.231616 3 5 cbr 500 ------- 2 8.1 5.0 17 7193
r 3.231676 2 3 cbr 500 ------- 3 9.1 5.0 17 7195
r 3.231736 1 2 cbr 500 ------- 4 10.1 5.0 17 7197
r 3.232016 3 5 cbr 500 ------- 3 9.1 5.0 17 7195
r 3.232076 2 3 cbr 500 ------- 4 10.1 5.0 17 7197
r 3.232416 3 5 cbr 500 ------- 4 10.1 5.0 17 7197
r 3.251871 6 0 cbr 1000 ------- 0 6.1 5.0 18 7264
r 3.251871 7 0 cbr 1000 ------- 1 7.1 5.0 18 7266
r 3.251871 8 0 cbr 1000 ------- 2 8.1 5.0 18 7268
r 3.251871 9 0 cbr 1000 ------- 3 9.1 5.0 18 7270
r 3.251871 10 0 cbr 1000 ------- 4 10.1 5.0 18 7272
r 3.252271 6 0 cbr 500 ------- 0 6.1 5.0 19 7265
r 3.252271 7 0 cbr 500 ------- 1 7.1 5.0 19 7267
r 3.252271 8 0 cbr 500 ------- 2 8.1 5.0 19 7269
r 3.252271 9 0 cbr 500 ------- 3 9.1 5.0 19 7271
r 3.252271 10 0 cbr 500 ------- 4 10.1 5.0 19 7273
r 3.252871 0 1 cbr 1000 ------- 0 6.1 5.0 18 7264
r 3.253571 1 2 cbr 1000 ------- 0 6.1 5.0 18 7264
r 3.253671 0 1 cbr 1000 ------- 1 7.1 5.0 18 7266
r 3.253951 2 3 cbr 1000 ------- 0 6.1 5.0 18 7264
r 3.254331 3 5 cbr 1000 ------- 0 6.1 5.0 18 7264
r 3.254371 1 2 cbr 1000 ------- 1 7.1 5.0 18 7266
r 3.254471 0 1 cbr 1000 ------- 2 8.1 5.0 18 7268
r 3.254751 2 3 cbr 1000 ------- 1 7.1 5.0 18 7266
r 3.255131 3 5 cbr 1000 ------- 1 7.1 5.0 18 7266
r 3.255171 1 2 cbr 1000 ------- 2 8.1 5.0 18 7268
r 3.255271 0 1 cbr 1000 ------- 3 9.1 5.0 18 7270
r 3.255551 2 3 cbr 1000 ------- 2 8.1 5.0 18 7268
r 3.255931 3 5 cbr 1000 ------- 2 8.1 5.0 18 7268
r 3.255971 1 2 cbr 1000 ------- 3 9.1 5.0 18 7270
r 3.256071 0 1 cbr 1000 ------- 4 10.1 5.0 18 7272
r 3.256351 2 3 cbr 1000 ------- 3 9.1 5.0 18 7270
r 3.256471 0 1 cbr 500 ------- 0 6.1 5.0 19 7265
r 3.256731 3 5 cbr 1000 ------- 3 9.1 5.0 18 7270
r 3.256771 1 2 cbr 1000 ------- 4 10.1 5.0 18 7272
r 3.256871 0 1 cbr 500 ------- 1 7.1 5.0 19 7267
r 3.257021 1 2 cbr 500 ------- 0 6.1 5.0 19 7265
r 3.257151 2 3 cbr 1000 ------- 4 10.1 5.0 18 7272
r 3.257271 0 1 cbr 500 ------- 2 8.1 5.0 19 7269
r 3.257321 1 2 cbr 500 ------- 1 7.1 5.0 19 7267
r 3.257361 2 3 cbr 500 ------- 0 6.1 5.0 19 7265
r 3.257531 3 5 cbr 1000 ------- 4 10.1 5.0 18 7272
r 3.257661 2 3 cbr 500 ------- 1 7.1 5.0 19 7267
r 3.257671 0 1 cbr 500 ------- 3 9.1 5.0 19 7271
r 3.257701 3 5 cbr 500 ------- 0 6.1 5.0 19 7265
r 3.257721 1 2 cbr 500 ------- 2 8.1 5.0 19 7269
r 3.258001 3 5 cbr 500 ------- 1 7.1 5.0 19 7267
r 3.258061 2 3 cbr 500 ------- 2 8.1 5.0 19 7269
r 3.258071 0 1 cbr 500 ------- 4 10.1 5.0 19 7273
r 3.258121 1 2 cbr 500 ------- 3 9.1 5.0 19 7271
r 3.258401 3 5 cbr 500 ------- 2 8.1 5.0 19 7269
r 3.258461 2 3 cbr 500 ------- 3 9.1 5.0 19 7271
r 3.258521 1 2 cbr 500 ------- 4 10.1 5.0 19 7273
r 3.258801 3 5 cbr 500 ------- 3 9.1 5.0 19 7271
r 3.258861 2 3 cbr 500 ------- 4 10.1 5.0 19 7273
r 3.259201 3 5 cbr 500 ------- 4 10.1 5.0 19 7273
r 3.278657 6 0 cbr 1000 ------- 0 6.1 5.0 20 7341
r 3.278657 7 0 cbr 1000 ------- 1 7.1 5.0 20 7343
r 3.278657 8 0 cbr 1000 ------- 2 8.1 5.0 20 7345
r 3.278657 9 0 cbr 1000 ------- 3 9.1 5.0 20 7347
r 3.278657 10 0 cbr 1000 ------- 4 10.1 5.0 20 7349
r 3.279057 6 0 cbr 500 ------- 0 6.1 5.0 21 7342
r 3.279057 7 0 cbr 500 ------- 1 7.1 5.0 21 7344
r 3.279057 8 0 cbr 500 ------- 2 8.1 5.0 21 7346
r 3.279057 9 0 cbr 500 ------- 3 9.1 5.0 21 7348
r 3.279057 10 0 cbr 500 ------- 4 10.1 5.0 21 7350
r 3.279657 0 1 cbr 1000 ------- 0 6.1 5.0 20 7341
r 3.280357 1 2 cbr 1000 ------- 0 6.1 5.0 20 7341
r 3.280457 0 1 cbr 1000 ------- 1 7.1 5.0 20 7343
r 3.280737 2 3 cbr 1000 ------- 0 6.1 5.0 20 7341
r 3.281117 3 5 cbr 1000 ------- 0 6.1 5.0 20 7341
r 3.281157 1 2 cbr 1000 ------- 1 7.1 5.0 20 7343
r 3.281257 0 1 cbr 1000 ------- 2 8.1 5.0 20 7345
r 3.281537 2 3 cbr 1000 ------- 1 7.1 5.0 20 7343
r 3.281917 3 5 cbr 1000 ------- 1 7.1 5.0 20 7343
r 3.281957 1 2 cbr 1000 ------- 2 8.1 5.0 20 7345
r 3.282057 0 1 cbr 1000 ------- 3 9.1 5.0 20 7347
r 3.282337 2 3 cbr 1000 ------- 2 8.1 5.0 20 7345
r 3.282717 3 5 cbr 1000 ------- 2 8.1 5.0 20 7345
r 3.282757 1 2 cbr 1000 ------- 3 9.1 5.0 20 7347
r 3.282857 0 1 cbr 1000 ------- 4 10.1 5.0 20 7349
r 3.283137 2 3 cbr 1000 ------- 3 9.1 5.0 20 7347
r 3.283257 0 1 cbr 500 ------- 0 6.1 5.0 21 7342
r 3.283517 3 5 cbr 1000 ------- 3 9.1 5.0 20 7347
r 3.283557 1 2 cbr 1000 ------- 4 10.1 5.0 20 7349
r 3.283657 0 1 cbr 500 ------- 1 7.1 5.0 21 7344
r 3.283807 1 2 cbr 500 ------- 0 6.1 5.0 21 7342
r 3.283937 2 3 cbr 1000 ------- 4 10.1 5.0 20 7349
r 3.284057 0 1 cbr 500 ------- 2 8.1 5.0 21 7346
r 3.284107 1 2 cbr 500 ------- 1 7.1 5.0 21 7344
r 3.284147 2 3 cbr 500 ------- 0 6.1 5.0 21 7342
r 3.284317 3 5 cbr 1000 ------- 4 10.1 5.0 20 7349
r 3.284447 2 3 cbr 500 ------- 1 7.1 5.0 21 7344
r 3.284457 0 1 cbr 500 ------- 3 9.1 5.0 21 7348
r 3.284487 3 5 cbr 500 ------- 0 6.1 5.0 21 7342
r 3.284507 1 2 cbr 500 ------- 2 8.1 5.0 21 7346
r 3.284787 3 5 cbr 500 ------- 1 7.1 5.0 21 7344
r 3.284847 2 3 cbr 500 ------- 2 8.1 5.0 21 7346
r 3.284857 0 1 cbr 500 ------- 4 10.1 5.0 21 7350
r 3.284907 1 2 cbr 500 ------- 3 9.1 5.0 21 7348
r 3.285187 3 5 cbr 500 ------- 2 8.1 5.0 21 7346
r 3.285247 2 3 cbr 500 ------- 3 9.1 5.0 21 7348
r 3.285307 1 2 cbr 500 ------- 4 10.1 5.0 21 7350
r 3.285587 3 5 cbr 500 ------- 3 9.1 5.0 21 7348
r 3.285647 2 3 cbr 500 ------- 4 10.1 5.0 21 7350
r 3.285987 3 5 cbr 500 ------- 4 10.1 5.0 21 7350
r 3.305443 6 0 cbr 1000 ------- 0 6.1 5.0 22 7419
r 3.305443 7 0 cbr 1000 ------- 1 7.1 5.0 22 7421
r 3.305443 8 0 cbr 1000 ------- 2 8.1 5.0 22 7423
r 3.305443 9 0 cbr 1000 ------- 3 9.1 5.0 22 7425
r 3.305443 10 0 cbr 1000 ------- 4 10.1 5.0 22 7427
r 3.305843 6 0 cbr 500 ------- 0 6.1 5.0 23 7420
r 3.305843 7 0 cbr 500 ------- 1 7.1 5.0 23 7422
r 3.305843 8 0 cbr 500 ------- 2 8.1 5.0 23 7424
r 3.305843 9 0 cbr 500 ------- 3 9.1 5.0 23 7426
r 3.305843 10 0 cbr 500 ------- 4 10.1 5.0 23 7428
r 3.306443 0 1 cbr 1000 ------- 0 6.1 5.0 22 7419
r 3.307143 1 2 cbr 1000 ------- 0 6.1 5.0 22 7419
r 3.307243 0 1 cbr 1000 ------- 1 7.1 5.0 22 7421
r 3.307523 2 3 cbr 1000 ------- 0 6.1 5.0 22 7419
r 3.307903 3 5 cbr 1000 ------- 0 6.1 5.0 22 7419
r 3.307943 1 2 cbr 1000 ------- 1 7.1 5.0 22 7421
r 3.308043 0 1 cbr 1000 ------- 2 8.1 5.0 22 7423
r 3.308323 2 3 cbr 1000 ------- 1 7.1 5.0 22 7421
r 3.308703 3 5 cbr 1000 ------- 1 7.1 5.0 22 7421
r 3.308743 1 2 cbr 1000 ------- 2 8.1 5.0 22 7423
r 3.308843 0 1 cbr 1000 ------- 3 9.1 5.0 22 7425
r 3.309123 2 3 cbr 1000 ------- 2 8.1 5.0 22 7423
r 3.309503 3 5 cbr 1000 ------- 2 8.1 5.0 22 7423
r 3.309543 1 2 cbr 1000 ------- 3 9.1 5.0 22 7425
r 3.309643 0 1 cbr 1000 ------- 4 10.1 5.0 22 7427
r 3.309923 2 3 cbr 1000 ------- 3 9.1 5.0 22 7425
r 3.310043 0 1 cbr 500 ------- 0 6.1 5.0 23 7420
r 3.310303 3 5 cbr 1000 ------- 3 9.1 5.0 22 7425
r 3.310343 1 2 cbr 1000 ------- 4 10.1 5.0 22 7427
r 3.310443 0 1 cbr 500 ------- 1 7.1 5.0 23 7422
r 3.310593 1 2 cbr 500 ------- 0 6.1 5.0 23 7420
r 3.310723 2 3 cbr 1000 ------- 4 10.1 5.0 22 7427
r 3.310843 0 1 cbr 500 ------- 2 8.1 5.0 23 7424
r 3.310893 1 2 cbr 500 ------- 1 7.1 5.0 23 7422
r 3.310933 2 3 cbr 500 ------- 0 6.1 5.0 23 7420
r 3.311103 3 5 cbr 1000 ------- 4 10.1 5.0 22 7427
r 3.311233 2 3 cbr 500 ------- 1 7.1 5.0 23 7422
r 3.311243 0 1 cbr 500 ------- 3 9.1 5.0 23 7426
r 3.311273 3 5 cbr 500 ------- 0 6.1 5.0 23 7420
r 3.311293 1 2 cbr 500 ------- 2 8.1 5.0 23 7424
r 3.311573 3 5 cbr 500 ------- 1 7.1 5.0 23 7422
r 3.311633 2 3 cbr 500 ------- 2 8.1 5.0 23 7424
r 3.311643 0 1 cbr 500 ------- 4 10.1 5.0 23 7428
r 3.311693 1 2 cbr 500 ------- 3 9.1 5.0 23 7426
r 3.311973 3 5 cbr 500 ------- 2 8.1 5.0 23 7424
r 3.312033 2 3 cbr 500 ------- 3 9.1 5.0 23 7426
r 3.312093 1 2 cbr 500 ------- 4 10.1 5.0 23 7428
r 3.312373 3 5 cbr 500 ------- 3 9.1 5.0 23 7426
r 3.312433 2 3 cbr 500 ------- 4 10.1 5.0 23 7428
r 3.312773 3 5 cbr 500 ------- 4 10.1 5.0 23 7428
r 3.332229 6 0 cbr 1000 ------- 0 6.1 5.0 24 7495
r 3.332229 7 0 cbr 1000 ------- 1 7.1 5.0 24 7497
r 3.332229 8 0 cbr 1000 ------- 2 8.1 5.0 24 7499
r 3.332229 9 0 cbr 1000 ------- 3 9.1 5.0 24 7501
r 3.332229 10 0 cbr 1000 ------- 4 10.1 5.0 24 7503
r 3.332629 6 0 cbr 500 ------- 0 6.1 5.0 25 7496
r 3.332629 7 0 cbr 500 ------- 1 7.1 5.0 25 7498
r 3.332629 8 0 cbr 500 ------- 2 8.1 5.0 25 7500
r 3.332629 9 0 cbr 500 ------- 3 9.1 5.0 25 7502
r 3.332629 10 0 cbr 500 ------- 4 10.1 5.0 25 7504
r 3.333229 0 1 cbr 1000 ------- 0 6.1 5.0 24 7495