r 4.59391 9 0 cbr 1000 ------- 3 9.1 5.0 0 3958
r 4.59431 9 0 cbr 500 ------- 3 9.1 5.0 1 3959
r 4.59491 0 1 cbr 1000 ------- 3 9.1 5.0 0 3958
r 4.59531 0 1 cbr 500 ------- 3 9.1 5.0 1 3959
r 4.59561 1 2 cbr 1000 ------- 3 9.1 5.0 0 3958
r 4.59586 1 2 cbr 500 ------- 3 9.1 5.0 1 3959
r 4.59599 2 3 cbr 1000 ------- 3 9.1 5.0 0 3958
r 4.5962 2 3 cbr 500 ------- 3 9.1 5.0 1 3959
r 4.59637 3 5 cbr 1000 ------- 3 9.1 5.0 0 3958
r 4.59654 3 5 cbr 500 ------- 3 9.1 5.0 1 3959
r 4.620696 9 0 cbr 1000 ------- 3 9.1 5.0 2 4025
r 4.621096 9 0 cbr 500 ------- 3 9.1 5.0 3 4026
r 4.621696 0 1 cbr 1000 ------- 3 9.1 5.0 2 4025
r 4.622096 0 1 cbr 500 ------- 3 9.1 5.0 3 4026
r 4.622396 1 2 cbr 1000 ------- 3 9.1 5.0 2 4025
r 4.622646 1 2 cbr 500 ------- 3 9.1 5.0 3 4026
r 4.622776 2 3 cbr 1000 ------- 3 9.1 5.0 2 4025
r 4.622986 2 3 cbr 500 ------- 3 9.1 5.0 3 4026
r 4.623156 3 5 cbr 1000 ------- 3 9.1 5.0 2 4025
r 4.623326 3 5 cbr 500 ------- 3 9.1 5.0 3 4026
r 4.647481 9 0 cbr 1000 ------- 3 9.1 5.0 4 4091
r 4.647881 9 0 cbr 500 ------- 3 9.1 5.0 5 4092
r 4.648481 0 1 cbr 1000 ------- 3 9.1 5.0 4 4091
r 4.648881 0 1 cbr 500 ------- 3 9.1 5.0 5 4092
r 4.649181 1 2 cbr 1000 ------- 3 9.1 5.0 4 4091
r 4.649431 1 2 cbr 500 ------- 3 9.1 5.0 5 4092
r 4.649561 2 3 cbr 1000 ------- 3 9.1 5.0 4 4091
r 4.649771 2 3 cbr 500 ------- 3 9.1 5.0 5 4092
r 4.649941 3 5 cbr 1000 ------- 3 9.1 5.0 4 4091
r 4.650111 3 5 cbr 500 ------- 3 9.1 5.0 5 4092
r 4.674267 9 0 cbr 1000 ------- 3 9.1 5.0 6 4157
r 4.674667 9 0 cbr 500 ------- 3 9.1 5.0 7 4158
r 4.675267 0 1 cbr 1000 ------- 3 9.1 5.0 6 4157
r 4.675699 0 1 cbr 500 ------- 3 9.1 5.0 7 4158
r 4.675967 1 2 cbr 1000 ------- 3 9.1 5.0 6 4157
r 4.676237 1 2 cbr 500 ------- 3 9.1 5.0 7 4158
r 4.676347 2 3 cbr 1000 ------- 3 9.1 5.0 6 4157
r 4.676577 2 3 cbr 500 ------- 3 9.1 5.0 7 4158
r 4.676727 3 5 cbr 1000 ------- 3 9.1 5.0 6 4157
r 4.676917 3 5 cbr 500 ------- 3 9.1 5.0 7 4158
r 4.701053 9 0 cbr 1000 ------- 3 9.1 5.0 8 4223
r 4.701453 9 0 cbr 500 ------- 3 9.1 5.0 9 4224
r 4.702053 0 1 cbr 1000 ------- 3 9.1 5.0 8 4223
r 4.702485 0 1 cbr 500 ------- 3 9.1 5.0 9 4224
r 4.702753 1 2 cbr 1000 ------- 3 9.1 5.0 8 4223
r 4.703023 1 2 cbr 500 ------- 3 9.1 5.0 9 4224
r 4.703133 2 3 cbr 1000 ------- 3 9.1 5.0 8 4223
r 4.703363 2 3 cbr 500 ------- 3 9.1 5.0 9 4224
r 4.703513 3 5 cbr 1000 ------- 3 9.1 5.0 8 4223
r 4.703703 3 5 cbr 500 ------- 3 9.1 5.0 9 4224
r 4.727839 9 0 cbr 1000 ------- 3 9.1 5.0 10 4290
r 4.728239 9 0 cbr 500 ------- 3 9.1 5.0 11 4291
r 4.728839 0 1 cbr 1000 ------- 3 9.1 5.0 10 4290
r 4.729239 0 1 cbr 500 ------- 3 9.1 5.0 11 4291
r 4.729539 1 2 cbr 1000 ------- 3 9.1 5.0 10 4290
r 4.729789 1 2 cbr 500 ------- 3 9.1 5.0 11 4291
r 4.729919 2 3 cbr 1000 ------- 3 9.1 5.0 10 4290
r 4.730129 2 3 cbr 500 ------- 3 9.1 5.0 11 4291
r 4.730299 3 5 cbr 1000 ------- 3 9.1 5.0 10 4290
r 4.730469 3 5 cbr 500 ------- 3 9.1 5.0 11 4291
r 4.754624 9 0 cbr 1000 ------- 3 9.1 5.0 12 4356
r 4.755024 9 0 cbr 500 ------- 3 9.1 5.0 13 4357
r 4.755624 0 1 cbr 1000 ------- 3 9.1 5.0 12 4356
r 4.756024 0 1 cbr 500 ------- 3 9.1 5.0 13 4357
r 4.756324 1 2 cbr 1000 ------- 3 9.1 5.0 12 4356
r 4.756574 1 2 cbr 500 ------- 3 9.1 5.0 13 4357
r 4.756704 2 3 cbr 1000 ------- 3 9.1 5.0 12 4356
r 4.756914 2 3 cbr 500 ------- 3 9.1 5.0 13 4357
r 4.757084 3 5 cbr 1000 ------- 3 9.1 5.0 12 4356
r 4.757254 3 5 cbr 500 ------- 3 9.1 5.0 13 4357
r 4.78141 9 0 cbr 1000 ------- 3 9.1 5.0 14 4423
r 4.78181 9 0 cbr 500 ------- 3 9.1 5.0 15 4424
r 4.78241 0 1 cbr 1000 ------- 3 9.1 5.0 14 4423
r 4.78281 0 1 cbr 500 ------- 3 9.1 5.0 15 4424
r 4.78311 1 2 cbr 1000 ------- 3 9.1 5.0 14 4423
r 4.78336 1 2 cbr 500 ------- 3 9.1 5.0 15 4424
r 4.78349 2 3 cbr 1000 ------- 3 9.1 5.0 14 4423
r 4.7837 2 3 cbr 500 ------- 3 9.1 5.0 15 4424
r 4.78387 3 5 cbr 1000 ------- 3 9.1 5.0 14 4423
r 4.78404 3 5 cbr 500 ------- 3 9.1 5.0 15 4424
r 4.808196 9 0 cbr 1000 ------- 3 9.1 5.0 16 4489
r 4.808596 9 0 cbr 500 ------- 3 9.1 5.0 17 4490
r 4.809196 0 1 cbr 1000 ------- 3 9.1 5.0 16 4489
r 4.809628 0 1 cbr 500 ------- 3 9.1 5.0 17 4490
r 4.809896 1 2 cbr 1000 ------- 3 9.1 5.0 16 4489
r 4.810166 1 2 cbr 500 ------- 3 9.1 5.0 17 4490
r 4.810276 2 3 cbr 1000 ------- 3 9.1 5.0 16 4489
r 4.810506 2 3 cbr 500 ------- 3 9.1 5.0 17 4490
r 4.810656 3 5 cbr 1000 ------- 3 9.1 5.0 16 4489
r 4.810846 3 5 cbr 500 ------- 3 9.1 5.0 17 4490
r 4.834981 9 0 cbr 1000 ------- 3 9.1 5.0 18 4555
r 4.835381 9 0 cbr 500 ------- 3 9.1 5.0 19 4556
r 4.835981 0 1 cbr 1000 ------- 3 9.1 5.0 18 4555
r 4.836413 0 1 cbr 500 ------- 3 9.1 5.0 19 4556
r 4.836681 1 2 cbr 1000 ------- 3 9.1 5.0 18 4555
r 4.836951 1 2 cbr 500 ------- 3 9.1 5.0 19 4556
r 4.837061 2 3 cbr 1000 ------- 3 9.1 5.0 18 4555
r 4.837291 2 3 cbr 500 ------- 3 9.1 5.0 19 4556
r 4.837441 3 5 cbr 1000 ------- 3 9.1 5.0 18 4555
r 4.837631 3 5 cbr 500 ------- 3 9.1 5.0 19 4556
r 4.861767 9 0 cbr 1000 ------- 3 9.1 5.0 20 4622
r 4.862167 9 0 cbr 500 ------- 3 9.1 5.0 21 4623
r 4.862784 0 1 cbr 1000 ------- 3 9.1 5.0 20 4622
r 4.863184 0 1 cbr 500 ------- 3 9.1 5.0 21 4623
r 4.863484 1 2 cbr 1000 ------- 3 9.1 5.0 20 4622
r 4.863734 1 2 cbr 500 ------- 3 9.1 5.0 21 4623
r 4.863864 2 3 cbr 1000 ------- 3 9.1 5.0 20 4622
r 4.864074 2 3 cbr 500 ------- 3 9.1 5.0 21 4623
r 4.864244 3 5 cbr 1000 ------- 3 9.1 5.0 20 4622
r 4.864414 3 5 cbr 500 ------- 3 9.1 5.0 21 4623
r 4.888553 9 0 cbr 1000 ------- 3 9.1 5.0 22 4688
r 4.888953 9 0 cbr 500 ------- 3 9.1 5.0 23 4689
r 4.889553 0 1 cbr 1000 ------- 3 9.1 5.0 22 4688
r 4.889953 0 1 cbr 500 ------- 3 9.1 5.0 23 4689
r 4.890253 1 2 cbr 1000 ------- 3 9.1 5.0 22 4688
r 4.890503 1 2 cbr 500 ------- 3 9.1 5.0 23 4689
r 4.890633 2 3 cbr 1000 ------- 3 9.1 5.0 22 4688
r 4.890843 2 3 cbr 500 ------- 3 9.1 5.0 23 4689
r 4.891013 3 5 cbr 1000 ------- 3 9.1 5.0 22 4688
r 4.891183 3 5 cbr 500 ------- 3 9.1 5.0 23 4689
r 4.915339 9 0 cbr 1000 ------- 3 9.1 5.0 24 4755
r 4.915739 9 0 cbr 500 ------- 3 9.1 5.0 25 4756
r 4.916339 0 1 cbr 1000 ------- 3 9.1 5.0 24 4755
r 4.916739 0 1 cbr 500 ------- 3 9.1 5.0 25 4756
r 4.917039 1 2 cbr 1000 ------- 3 9.1 5.0 24 4755
r 4.917289 1 2 cbr 500 ------- 3 9.1 5.0 25 4756
r 4.917419 2 3 cbr 1000 ------- 3 9.1 5.0 24 4755
r 4.917629 2 3 cbr 500 ------- 3 9.1 5.0 25 4756
r 4.917799 3 5 cbr 1000 ------- 3 9.1 5.0 24 4755
r 4.917969 3 5 cbr 500 ------- 3 9.1 5.0 25 4756
r 4.942124 9 0 cbr 1000 ------- 3 9.1 5.0 26 4821
r 4.942524 9 0 cbr 500 ------- 3 9.1 5.0 27 4822
r 4.943124 0 1 cbr 1000 ------- 3 9.1 5.0 26 4821
r 4.943556 0 1 cbr 500 ------- 3 9.1 5.0 27 4822
r 4.943824 1 2 cbr 1000 ------- 3 9.1 5.0 26 4821
r 4.944094 1 2 cbr 500 ------- 3 9.1 5.0 27 4822
r 4.944204 2 3 cbr 1000 ------- 3 9.1 5.0 26 4821
r 4.944434 2 3 cbr 500 ------- 3 9.1 5.0 27 4822
r 4.944584 3 5 cbr 1000 ------- 3 9.1 5.0 26 4821
r 4.944774 3 5 cbr 500 ------- 3 9.1 5.0 27 4822
r 4.96891 9 0 cbr 1000 ------- 3 9.1 5.0 28 4867
r 4.96931 9 0 cbr 500 ------- 3 9.1 5.0 29 4868
r 4.96991 0 1 cbr 1000 ------- 3 9.1 5.0 28 4867
r 4.970342 0 1 cbr 500 ------- 3 9.1 5.0 29 4868
r 4.97061 1 2 cbr 1000 ------- 3 9.1 5.0 28 4867
r 4.97088 1 2 cbr 500 ------- 3 9.1 5.0 29 4868
r 4.97099 2 3 cbr 1000 ------- 3 9.1 5.0 28 4867
r 4.97122 2 3 cbr 500 ------- 3 9.1 5.0 29 4868
r 4.97137 3 5 cbr 1000 ------- 3 9.1 5.0 28 4867
r 4.97156 3 5 cbr 500 ------- 3 9.1 5.0 29 4868
r 4.995696 9 0 cbr 1000 ------- 3 9.1 5.0 30 4914
r 4.996096 9 0 cbr 500 ------- 3 9.1 5.0 31 4915
r 4.996696 0 1 cbr 1000 ------- 3 9.1 5.0 30 4914
r 4.997128 0 1 cbr 500 ------- 3 9.1 5.0 31 4915
r 4.997396 1 2 cbr 1000 ------- 3 9.1 5.0 30 4914
r 4.997666 1 2 cbr 500 ------- 3 9.1 5.0 31 4915
r 4.997776 2 3 cbr 1000 ------- 3 9.1 5.0 30 4914
r 4.998006 2 3 cbr 500 ------- 3 9.1 5.0 31 4915
r 4.998156 3 5 cbr 1000 ------- 3 9.1 5.0 30 4914
r 4.998346 3 5 cbr 500 ------- 3 9.1 5.0 31 4915
r 5.022481 9 0 cbr 1000 ------- 3 9.1 5.0 32 4961
r 5.022881 9 0 cbr 500 ------- 3 9.1 5.0 33 4962
r 5.023481 0 1 cbr 1000 ------- 3 9.1 5.0 32 4961
r 5.023913 0 1 cbr 500 ------- 3 9.1 5.0 33 4962
r 5.024181 1 2 cbr 1000 ------- 3 9.1 5.0 32 4961
r 5.024451 1 2 cbr 500 ------- 3 9.1 5.0 33 4962
r 5.024561 2 3 cbr 1000 ------- 3 9.1 5.0 32 4961
r 5.024791 2 3 cbr 500 ------- 3 9.1 5.0 33 4962
r 5.024941 3 5 cbr 1000 ------- 3 9.1 5.0 32 4961
r 5.025131 3 5 cbr 500 ------- 3 9.1 5.0 33 4962
r 5.049267 9 0 cbr 1000 ------- 3 9.1 5.0 34 5009
r 5.049667 9 0 cbr 500 ------- 3 9.1 5.0 35 5010
r 5.050267 0 1 cbr 1000 ------- 3 9.1 5.0 34 5009
r 5.050667 0 1 cbr 500 ------- 3 9.1 5.0 35 5010
r 5.050967 1 2 cbr 1000 ------- 3 9.1 5.0 34 5009
r 5.051217 1 2 cbr 500 ------- 3 9.1 5.0 35 5010
r 5.051347 2 3 cbr 1000 ------- 3 9.1 5.0 34 5009
r 5.051557 2 3 cbr 500 ------- 3 9.1 5.0 35 5010
r 5.051727 3 5 cbr 1000 ------- 3 9.1 5.0 34 5009
r 5.051897 3 5 cbr 500 ------- 3 9.1 5.0 35 5010
r 5.076053 9 0 cbr 1000 ------- 3 9.1 5.0 36 5054
r 5.076453 9 0 cbr 500 ------- 3 9.1 5.0 37 5055
r 5.077053 0 1 cbr 1000 ------- 3 9.1 5.0 36 5054
r 5.077453 0 1 cbr 500 ------- 3 9.1 5.0 37 5055
r 5.077753 1 2 cbr 1000 ------- 3 9.1 5.0 36 5054
r 5.078003 1 2 cbr 500 ------- 3 9.1 5.0 37 5055
r 5.078133 2 3 cbr 1000 ------- 3 9.1 5.0 36 5054
r 5.078343 2 3 cbr 500 ------- 3 9.1 5.0 37 5055
r 5.078513 3 5 cbr 1000 ------- 3 9.1 5.0 36 5054
r 5.078683 3 5 cbr 500 ------- 3 9.1 5.0 37 5055
r 5.102839 9 0 cbr 1000 ------- 3 9.1 5.0 38 5099
r 5.103239 9 0 cbr 500 ------- 3 9.1 5.0 39 5100
r 5.103839 0 1 cbr 1000 ------- 3 9.1 5.0 38 5099
r 5.104239 0 1 cbr 500 ------- 3 9.1 5.0 39 5100
r 5.104539 1 2 cbr 1000 ------- 3 9.1 5.0 38 5099
r 5.104789 1 2 cbr 500 ------- 3 9.1 5.0 39 5100
r 5.104919 2 3 cbr 1000 ------- 3 9.1 5.0 38 5099
r 5.105129 2 3 cbr 500 ------- 3 9.1 5.0 39 5100
r 5.105299 3 5 cbr 1000 ------- 3 9.1 5.0 38 5099
r 5.105469 3 5 cbr 500 ------- 3 9.1 5.0 39 5100
r 5.129624 9 0 cbr 1000 ------- 3 9.1 5.0 40 5145
r 5.130024 9 0 cbr 500 ------- 3 9.1 5.0 41 5146
r 5.130624 0 1 cbr 1000 ------- 3 9.1 5.0 40 5145
r 5.131024 0 1 cbr 500 ------- 3 9.1 5.0 41 5146
r 5.131324 1 2 cbr 1000 ------- 3 9.1 5.0 40 5145
r 5.131574 1 2 cbr 500 ------- 3 9.1 5.0 41 5146
r 5.131704 2 3 cbr 1000 ------- 3 9.1 5.0 40 5145
r 5.131914 2 3 cbr 500 ------- 3 9.1 5.0 41 5146
r 5.132084 3 5 cbr 1000 ------- 3 9.1 5.0 40 5145
r 5.132254 3 5 cbr 500 ------- 3 9.1 5.0 41 5146
r 5.15641 9 0 cbr 1000 ------- 3 9.1 5.0 42 5191
r 5.15681 9 0 cbr 500 ------- 3 9.1 5.0 43 5192
r 5.15741 0 1 cbr 1000 ------- 3 9.1 5.0 42 5191
r 5.15781 0 1 cbr 500 ------- 3 9.1 5.0 43 5192
r 5.15811 1 2 cbr 1000 ------- 3 9.1 5.0 42 5191
r 5.15836 1 2 cbr 500 ------- 3 9.1 5.0 43 5192
r 5.15849 2 3 cbr 1000 ------- 3 9.1 5.0 42 5191
r 5.1587 2 3 cbr 500 ------- 3 9.1 5.0 43 5192
r 5.15887 3 5 cbr 1000 ------- 3 9.1 5.0 42 5191
r 5.15904 3 5 cbr 500 ------- 3 9.1 5.0 43 5192
r 5.183196 9 0 cbr 1000 ------- 3 9.1 5.0 44 5235
r 5.183596 9 0 cbr 500 ------- 3 9.1 5.0 45 5236
r 5.184196 0 1 cbr 1000 ------- 3 9.1 5.0 44 5235
r 5.184596 0 1 cbr 500 ------- 3 9.1 5.0 45 5236
r 5.184896 1 2 cbr 1000 ------- 3 9.1 5.0 44 5235
r 5.185146 1 2 cbr 500 ------- 3 9.1 5.0 45 5236
r 5.185276 2 3 cbr 1000 ------- 3 9.1 5.0 44 5235
r 5.185486 2 3 cbr 500 ------- 3 9.1 5.0 45 5236
r 5.185656 3 5 cbr 1000 ------- 3 9.1 5.0 44 5235
r 5.185826 3 5 cbr 500 ------- 3 9.1 5.0 45 5236
r 5.209981 9 0 cbr 1000 ------- 3 9.1 5.0 46 5279
r 5.210381 9 0 cbr 500 ------- 3 9.1 5.0 47 5280
r 5.210981 0 1 cbr 1000 ------- 3 9.1 5.0 46 5279
r 5.211381 0 1 cbr 500 ------- 3 9.1 5.0 47 5280
r 5.211681 1 2 cbr 1000 ------- 3 9.1 5.0 46 5279
r 5.211931 1 2 cbr 500 ------- 3 9.1 5.0 47 5280
r 5.212061 2 3 cbr 1000 ------- 3 9.1 5.0 46 5279
r 5.212271 2 3 cbr 500 ------- 3 9.1 5.0 47 5280
r 5.212441 3 5 cbr 1000 ------- 3 9.1 5.0 46 5279
r 5.212611 3 5 cbr 500 ------- 3 9.1 5.0 47 5280
r 5.236767 9 0 cbr 1000 ------- 3 9.1 5.0 48 5325
r 5.237167 9 0 cbr 500 ------- 3 9.1 5.0 49 5326
r 5.237767 0 1 cbr 1000 ------- 3 9.1 5.0 48 5325
r 5.238167 0 1 cbr 500 ------- 3 9.1 5.0 49 5326
r 5.238467 1 2 cbr 1000 ------- 3 9.1 5.0 48 5325
r 5.238717 1 2 cbr 500 ------- 3 9.1 5.0 49 5326
r 5.238847 2 3 cbr 1000 ------- 3 9.1 5.0 48 5325
r 5.239057 2 3 cbr 500 ------- 3 9.1 5.0 49 5326
r 5.239227 3 5 cbr 1000 ------- 3 9.1 5.0 48 5325
r 5.239397 3 5 cbr 500 ------- 3 9.1 5.0 49 5326
r 5.263553 9 0 cbr 1000 ------- 3 9.1 5.0 50 5371
r 5.263953 9 0 cbr 500 ------- 3 9.1 5.0 51 5372
r 5.264553 0 1 cbr 1000 ------- 3 9.1 5.0 50 5371
r 5.264953 0 1 cbr 500 ------- 3 9.1 5.0 51 5372
r 5.265253 1 2 cbr 1000 ------- 3 9.1 5.0 50 5371
r 5.265503 1 2 cbr 500 ------- 3 9.1 5.0 51 5372
r 5.265633 2 3 cbr 1000 ------- 3 9.1 5.0 50 5371
r 5.265843 2 3 cbr 500 ------- 3 9.1 5.0 51 5372
r 5.266013 3 5 cbr 1000 ------- 3 9.1 5.0 50 5371
r 5.266183 3 5 cbr 500 ------- 3 9.1 5.0 51 5372
r 5.290339 9 0 cbr 1000 ------- 3 9.1 5.0 52 5417
r 5.290739 9 0 cbr 500 ------- 3 9.1 5.0 53 5418
r 5.291339 0 1 cbr 1000 ------- 3 9.1 5.0 52 5417
r 5.291739 0 1 cbr 500 ------- 3 9.1 5.0 53 5418
r 5.292039 1 2 cbr 1000 ------- 3 9.1 5.0 52 5417
r 5.292289 1 2 cbr 500 ------- 3 9.1 5.0 53 5418
r 5.292419 2 3 cbr 1000 ------- 3 9.1 5.0 52 5417
r 5.292629 2 3 cbr 500 ------- 3 9.1 5.0 53 5418
r 5.292799 3 5 cbr 1000 ------- 3 9.1 5.0 52 5417
r 5.292969 3 5 cbr 500 ------- 3 9.1 5.0 53 5418
r 5.317124 9 0 cbr 1000 ------- 3 9.1 5.0 54 5463
r 5.317524 9 0 cbr 500 ------- 3 9.1 5.0 55 5464
r 5.318124 0 1 cbr 1000 ------- 3 9.1 5.0 54 5463
r 5.318524 0 1 cbr 500 ------- 3 9.1 5.0 55 5464
r 5.318824 1 2 cbr 1000 ------- 3 9.1 5.0 54 5463
r 5.319074 1 2 cbr 500 ------- 3 9.1 5.0 55 5464
r 5.319204 2 3 cbr 1000 ------- 3 9.1 5.0 54 5463
r 5.319414 2 3 cbr 500 ------- 3 9.1 5.0 55 5464
r 5.319584 3 5 cbr 1000 ------- 3 9.1 5.0 54 5463
r 5.319754 3 5 cbr 500 ------- 3 9.1 5.0 55 5464
r 5.34391 9 0 cbr 1000 ------- 3 9.1 5.0 56 5513
r 5.34431 9 0 cbr 500 ------- 3 9.1 5.0 57 5514
r 5.34491 0 1 cbr 1000 ------- 3 9.1 5.0 56 5513
r 5.34531 0 1 cbr 500 ------- 3 9.1 5.0 57 5514
r 5.34561 1 2 cbr 1000 ------- 3 9.1 5.0 56 5513
r 5.34586 1 2 cbr 500 ------- 3 9.1 5.0 57 5514
r 5.34599 2 3 cbr 1000 ------- 3 9.1 5.0 56 5513
r 5.3462 2 3 cbr 500 ------- 3 9.1 5.0 57 5514
r 5.34637 3 5 cbr 1000 ------- 3 9.1 5.0 56 5513
r 5.34654 3 5 cbr 500 ------- 3 9.1 5.0 57 5514
r 5.370696 9 0 cbr 1000 ------- 3 9.1 5.0 58 5565
r 5.371096 9 0 cbr 500 ------- 3 9.1 5.0 59 5566
r 5.371696 0 1 cbr 1000 ------- 3 9.1 5.0 58 5565
r 5.372096 0 1 cbr 500 ------- 3 9.1 5.0 59 5566
r 5.372396 1 2 cbr 1000 ------- 3 9.1 5.0 58 5565
r 5.372646 1 2 cbr 500 ------- 3 9.1 5.0 59 5566
r 5.372776 2 3 cbr 1000 ------- 3 9.1 5.0 58 5565
r 5.372986 2 3 cbr 500 ------- 3 9.1 5.0 59 5566
r 5.373156 3 5 cbr 1000 ------- 3 9.1 5.0 58 5565
r 5.373326 3 5 cbr 500 ------- 3 9.1 5.0 59 5566
r 5.397481 9 0 cbr 1000 ------- 3 9.1 5.0 60 5623
r 5.397881 9 0 cbr 500 ------- 3 9.1 5.0 61 5624
r 5.398481 0 1 cbr 1000 ------- 3 9.1 5.0 60 5623
r 5.398881 0 1 cbr 500 ------- 3 9.1 5.0 61 5624
r 5.399181 1 2 cbr 1000 ------- 3 9.1 5.0 60 5623
r 5.399431 1 2 cbr 500 ------- 3 9.1 5.0 61 5624
r 5.399561 2 3 cbr 1000 ------- 3 9.1 5.0 60 5623
r 5.399771 2 3 cbr 500 ------- 3 9.1 5.0 61 5624
r 5.399941 3 5 cbr 1000 ------- 3 9.1 5.0 60 5623
r 5.400111 3 5 cbr 500 ------- 3 9.1 5.0 61 5624
r 5.424267 9 0 cbr 1000 ------- 3 9.1 5.0 62 5690
r 5.424667 9 0 cbr 500 ------- 3 9.1 5.0 63 5691
r 5.425267 0 1 cbr 1000 ------- 3 9.1 5.0 62 5690
r 5.425667 0 1 cbr 500 ------- 3 9.1 5.0 63 5691
r 5.425967 1 2 cbr 1000 ------- 3 9.1 5.0 62 5690
r 5.426217 1 2 cbr 500 ------- 3 9.1 5.0 63 5691
r 5.426347 2 3 cbr 1000 ------- 3 9.1 5.0 62 5690
r 5.426557 2 3 cbr 500 ------- 3 9.1 5.0 63 5691
r 5.426727 3 5 cbr 1000 ------- 3 9.1 5.0 62 5690
r 5.426897 3 5 cbr 500 ------- 3 9.1 5.0 63 5691
r 5.451053 9 0 cbr 1000 ------- 3 9.1 5.0 64 5759
r 5.451453 9 0 cbr 500 ------- 3 9.1 5.0 65 5760
r 5.452053 0 1 cbr 1000 ------- 3 9.1 5.0 64 5759
r 5.452485 0 1 cbr 500 ------- 3 9.1 5.0 65 5760
r 5.452753 1 2 cbr 1000 ------- 3 9.1 5.0 64 5759
r 5.453023 1 2 cbr 500 ------- 3 9.1 5.0 65 5760
r 5.453133 2 3 cbr 1000 ------- 3 9.1 5.0 64 5759
r 5.453363 2 3 cbr 500 ------- 3 9.1 5.0 65 5760
r 5.453513 3 5 cbr 1000 ------- 3 9.1 5.0 64 5759
r 5.453703 3 5 cbr 500 ------- 3 9.1 5.0 65 5760
r 5.477839 9 0 cbr 1000 ------- 3 9.1 5.0 66 5825
r 5.478239 9 0 cbr 500 ------- 3 9.1 5.0 67 5826
r 5.478839 0 1 cbr 1000 ------- 3 9.1 5.0 66 5825
r 5.479271 0 1 cbr 500 ------- 3 9.1 5.0 67 5826
r 5.479539 1 2 cbr 1000 ------- 3 9.1 5.0 66 5825
r 5.479809 1 2 cbr 500 ------- 3 9.1 5.0 67 5826
r 5.479919 2 3 cbr 1000 ------- 3 9.1 5.0 66 5825
r 5.480149 2 3 cbr 500 ------- 3 9.1 5.0 67 5826
r 5.480299 3 5 cbr 1000 ------- 3 9.1 5.0 66 5825
r 5.480489 3 5 cbr 500 ------- 3 9.1 5.0 67 5826
r 5.504624 9 0 cbr 1000 ------- 3 9.1 5.0 68 5892
r 5.505024 9 0 cbr 500 ------- 3 9.1 5.0 69 5893
r 5.505624 0 1 cbr 1000 ------- 3 9.1 5.0 68 5892
r 5.506056 0 1 cbr 500 ------- 3 9.1 5.0 69 5893
r 5.506324 1 2 cbr 1000 ------- 3 9.1 5.0 68 5892
r 5.506594 1 2 cbr 500 ------- 3 9.1 5.0 69 5893
r 5.506704 2 3 cbr 1000 ------- 3 9.1 5.0 68 5892
r 5.506934 2 3 cbr 500 ------- 3 9.1 5.0 69 5893
r 5.507084 3 5 cbr 1000 ------- 3 9.1 5.0 68 5892
r 5.507274 3 5 cbr 500 ------- 3 9.1 5.0 69 5893
r 5.53141 9 0 cbr 1000 ------- 3 9.1 5.0 70 5958
r 5.53181 9 0 cbr 500 ------- 3 9.1 5.0 71 5959
r 5.53241 0 1 cbr 1000 ------- 3 9.1 5.0 70 5958
r 5.53281 0 1 cbr 500 ------- 3 9.1 5.0 71 5959
r 5.53311 1 2 cbr 1000 ------- 3 9.1 5.0 70 5958
r 5.53336 1 2 cbr 500 ------- 3 9.1 5.0 71 5959
r 5.53349 2 3 cbr 1000 ------- 3 9.1 5.0 70 5958
r 5.5337 2 3 cbr 500 ------- 3 9.1 5.0 71 5959
r 5.53387 3 5 cbr 1000 ------- 3 9.1 5.0 70 5958
r 5.53404 3 5 cbr 500 ------- 3 9.1 5.0 71 5959
r 5.558196 9 0 cbr 1000 ------- 3 9.1 5.0 72 6025
r 5.558596 9 0 cbr 500 ------- 3 9.1 5.0 73 6026
r 5.559196 0 1 cbr 1000 ------- 3 9.1 5.0 72 6025
r 5.559596 0 1 cbr 500 ------- 3 9.1 5.0 73 6026
r 5.559896 1 2 cbr 1000 ------- 3 9.1 5.0 72 6025
r 5.560146 1 2 cbr 500 ------- 3 9.1 5.0 73 6026
r 5.560276 2 3 cbr 1000 ------- 3 9.1 5.0 72 6025
r 5.560486 2 3 cbr 500 ------- 3 9.1 5.0 73 6026
r 5.560656 3 5 cbr 1000 ------- 3 9.1 5.0 72 6025
r 5.560826 3 5 cbr 500 ------- 3 9.1 5.0 73 6026
r 5.584981 9 0 cbr 1000 ------- 3 9.1 5.0 74 6091
r 5.585381 9 0 cbr 500 ------- 3 9.1 5.0 75 6092
r 5.585981 0 1 cbr 1000 ------- 3 9.1 5.0 74 6091
r 5.586381 0 1 cbr 500 ------- 3 9.1 5.0 75 6092
r 5.586681 1 2 cbr 1000 ------- 3 9.1 5.0 74 6091
r 5.586931 1 2 cbr 500 ------- 3 9.1 5.0 75 6092
r 5.587061 2 3 cbr 1000 ------- 3 9.1 5.0 74 6091
r 5.587271 2 3 cbr 500 ------- 3 9.1 5.0 75 6092
r 5.587441 3 5 cbr 1000 ------- 3 9.1 5.0 74 6091
r 5.587611 3 5 cbr 500 ------- 3 9.1 5.0 75 6092
r 5.611767 9 0 cbr 1000 ------- 3 9.1 5.0 76 6157
r 5.612167 9 0 cbr 500 ------- 3 9.1 5.0 77 6158
r 5.612767 0 1 cbr 1000 ------- 3 9.1 5.0 76 6157
r 5.613199 0 1 cbr 500 ------- 3 9.1 5.0 77 6158
r 5.613467 1 2 cbr 1000 ------- 3 9.1 5.0 76 6157
r 5.613737 1 2 cbr 500 ------- 3 9.1 5.0 77 6158
r 5.613847 2 3 cbr 1000 ------- 3 9.1 5.0 76 6157
r 5.614077 2 3 cbr 500 ------- 3 9.1 5.0 77 6158
r 5.614227 3 5 cbr 1000 ------- 3 9.1 5.0 76 6157
r 5.614417 3 5 cbr 500 ------- 3 9.1 5.0 77 6158
r 5.638553 9 0 cbr 1000 ------- 3 9.1 5.0 78 6223
r 5.638953 9 0 cbr 500 ------- 3 9.1 5.0 79 6224
r 5.639553 0 1 cbr 1000 ------- 3 9.1 5.0 78 6223
r 5.639985 0 1 cbr 500 ------- 3 9.1 5.0 79 6224
r 5.640253 1 2 cbr 1000 ------- 3 9.1 5.0 78 6223
r 5.640523 1 2 cbr 500 ------- 3 9.1 5.0 79 6224
r 5.640633 2 3 cbr 1000 ------- 3 9.1 5.0 78 6223
r 5.640863 2 3 cbr 500 ------- 3 9.1 5.0 79 6224
r 5.641013 3 5 cbr 1000 ------- 3 9.1 5.0 78 6223
r 5.641203 3 5 cbr 500 ------- 3 9.1 5.0 79 6224
r 5.665339 9 0 cbr 1000 ------- 3 9.1 5.0 80 6290
r 5.665739 9 0 cbr 500 ------- 3 9.1 5.0 81 6291
r 5.666339 0 1 cbr 1000 ------- 3 9.1 5.0 80 6290
r 5.666739 0 1 cbr 500 ------- 3 9.1 5.0 81 6291
r 5.667039 1 2 cbr 1000 ------- 3 9.1 5.0 80 6290
r 5.667289 1 2 cbr 500 ------- 3 9.1 5.0 81 6291
r 5.667419 2 3 cbr 1000 ------- 3 9.1 5.0 80 6290
r 5.667629 2 3 cbr 500 ------- 3 9.1 5.0 81 6291
r 5.667799 3 5 cbr 1000 ------- 3 9.1 5.0 80 6290
r 5.667969 3 5 cbr 500 ------- 3 9.1 5.0 81 6291
r 5.692124 9 0 cbr 1000 ------- 3 9.1 5.0 82 6357
r 5.692524 9 0 cbr 500 ------- 3 9.1 5.0 83 6358
r 5.693124 0 1 cbr 1000 ------- 3 9.1 5.0 82 6357
r 5.693524 0 1 cbr 500 ------- 3 9.1 5.0 83 6358
r 5.693824 1 2 cbr 1000 ------- 3 9.1 5.0 82 6357
r 5.694074 1 2 cbr 500 ------- 3 9.1 5.0 83 6358
r 5.694204 2 3 cbr 1000 ------- 3 9.1 5.0 82 6357
r 5.694414 2 3 cbr 500 ------- 3 9.1 5.0 83 6358
r 5.694584 3 5 cbr 1000 ------- 3 9.1 5.0 82 6357
r 5.694754 3 5 cbr 500 ------- 3 9.1 5.0 83 6358
r 5.71891 9 0 cbr 1000 ------- 3 9.1 5.0 84 6423
r 5.71931 9 0 cbr 500 ------- 3 9.1 5.0 85 6424
r 5.71991 0 1 cbr 1000 ------- 3 9.1 5.0 84 6423
r 5.72031 0 1 cbr 500 ------- 3 9.1 5.0 85 6424
r 5.72061 1 2 cbr 1000 ------- 3 9.1 5.0 84 6423
r 5.72086 1 2 cbr 500 ------- 3 9.1 5.0 85 6424
r 5.72099 2 3 cbr 1000 ------- 3 9.1 5.0 84 6423
r 5.7212 2 3 cbr 500 ------- 3 9.1 5.0 85 6424
r 5.72137 3 5 cbr 1000 ------- 3 9.1 5.0 84 6423
r 5.72154 3 5 cbr 500 ------- 3 9.1 5.0 85 6424
r 5.745696 9 0 cbr 1000 ------- 3 9.1 5.0 86 6489
r 5.746096 9 0 cbr 500 ------- 3 9.1 5.0 87 6490
r 5.746696 0 1 cbr 1000 ------- 3 9.1 5.0 86 6489
r 5.747128 0 1 cbr 500 ------- 3 9.1 5.0 87 6490
r 5.747396 1 2 cbr 1000 ------- 3 9.1 5.0 86 6489
r 5.747666 1 2 cbr 500 ------- 3 9.1 5.0 87 6490
r 5.747776 2 3 cbr 1000 ------- 3 9.1 5.0 86 6489
r 5.748006 2 3 cbr 500 ------- 3 9.1 5.0 87 6490
r 5.748156 3 5 cbr 1000 ------- 3 9.1 5.0 86 6489
r 5.748346 3 5 cbr 500 ------- 3 9.1 5.0 87 6490
r 5.772481 9 0 cbr 1000 ------- 3 9.1 5.0 88 6555
r 5.772881 9 0 cbr 500 ------- 3 9.1 5.0 89 6556
r 5.773481 0 1 cbr 1000 ------- 3 9.1 5.0 88 6555
r 5.773913 0 1 cbr 500 ------- 3 9.1 5.0 89 6556
r 5.774181 1 2 cbr 1000 ------- 3 9.1 5.0 88 6555
r 5.774451 1 2 cbr 500 ------- 3 9.1 5.0 89 6556
r 5.774561 2 3 cbr 1000 ------- 3 9.1 5.0 88 6555
r 5.774791 2 3 cbr 500 ------- 3 9.1 5.0 89 6556
r 5.774941 3 5 cbr 1000 ------- 3 9.1 5.0 88 6555
r 5.775131 3 5 cbr 500 ------- 3 9.1 5.0 89 6556
r 5.799267 9 0 cbr 1000 ------- 3 9.1 5.0 90 6622
r 5.799667 9 0 cbr 500 ------- 3 9.1 5.0 91 6623
r 5.800267 0 1 cbr 1000 ------- 3 9.1 5.0 90 6622
r 5.800667 0 1 cbr 500 ------- 3 9.1 5.0 91 6623
r 5.800967 1 2 cbr 1000 ------- 3 9.1 5.0 90 6622
r 5.801217 1 2 cbr 500 ------- 3 9.1 5.0 91 6623
r 5.801347 2 3 cbr 1000 ------- 3 9.1 5.0 90 6622
r 5.801557 2 3 cbr 500 ------- 3 9.1 5.0 91 6623
r 5.801727 3 5 cbr 1000 ------- 3 9.1 5.0 90 6622
r 5.801897 3 5 cbr 500 ------- 3 9.1 5.0 91 6623
r 5.826053 9 0 cbr 1000 ------- 3 9.1 5.0 92 6689
r 5.826453 9 0 cbr 500 ------- 3 9.1 5.0 93 6690
r 5.827053 0 1 cbr 1000 ------- 3 9.1 5.0 92 6689
r 5.827453 0 1 cbr 500 ------- 3 9.1 5.0 93 6690
r 5.827753 1 2 cbr 1000 ------- 3 9.1 5.0 92 6689
r 5.828003 1 2 cbr 500 ------- 3 9.1 5.0 93 6690
r 5.828133 2 3 cbr 1000 ------- 3 9.1 5.0 92 6689
r 5.828343 2 3 cbr 500 ------- 3 9.1 5.0 93 6690
r 5.828513 3 5 cbr 1000 ------- 3 9.1 5.0 92 6689
r 5.828683 3 5 cbr 500 ------- 3 9.1 5.0 93 6690
r 5.849771 15 0 cbr 1000 ------- 9 15.1 5.0 0 6747
r 5.850171 15 0 cbr 500 ------- 9 15.1 5.0 1 6748
r 5.850771 0 1 cbr 1000 ------- 9 15.1 5.0 0 6747
r 5.851203 0 1 cbr 500 ------- 9 15.1 5.0 1 6748
r 5.851471 1 2 cbr 1000 ------- 9 15.1 5.0 0 6747
r 5.851741 1 2 cbr 500 ------- 9 15.1 5.0 1 6748
r 5.851851 2 3 cbr 1000 ------- 9 15.1 5.0 0 6747
r 5.852081 2 3 cbr 500 ------- 9 15.1 5.0 1 6748
r 5.852231 3 5 cbr 1000 ------- 9 15.1 5.0 0 6747
r 5.852421 3 5 cbr 500 ------- 9 15.1 5.0 1 6748
r 5.852839 9 0 cbr 1000 ------- 3 9.1 5.0 94 6757
r 5.853239 9 0 cbr 500 ------- 3 9.1 5.0 95 6758
r 5.853839 0 1 cbr 1000 ------- 3 9.1 5.0 94 6757
r 5.854239 0 1 cbr 500 ------- 3 9.1 5.0 95 6758
r 5.854539 1 2 cbr 1000 ------- 3 9.1 5.0 94 6757
r 5.854789 1 2 cbr 500 ------- 3 9.1 5.0 95 6758
r 5.854919 2 3 cbr 1000 ------- 3 9.1 5.0 94 6757
r 5.855129 2 3 cbr 500 ------- 3 9.1 5.0 95 6758
r 5.855299 3 5 cbr 1000 ------- 3 9.1 5.0 94 6757
r 5.855469 3 5 cbr 500 ------- 3 9.1 5.0 95 6758
r 5.876557 15 0 cbr 1000 ------- 9 15.1 5.0 2 6816
r 5.876957 15 0 cbr 500 ------- 9 15.1 5.0 3 6817
r 5.877557 0 1 cbr 1000 ------- 9 15.1 5.0 2 6816
r 5.877989 0 1 cbr 500 ------- 9 15.1 5.0 3 6817
r 5.878257 1 2 cbr 1000 ------- 9 15.1 5.0 2 6816
r 5.878527 1 2 cbr 500 ------- 9 15.1 5.0 3 6817
r 5.878637 2 3 cbr 1000 ------- 9 15.1 5.0 2 6816
r 5.878867 2 3 cbr 500 ------- 9 15.1 5.0 3 6817
r 5.879017 3 5 cbr 1000 ------- 9 15.1 5.0 2 6816
r 5.879207 3 5 cbr 500 ------- 9 15.1 5.0 3 6817
r 5.879624 9 0 cbr 1000 ------- 3 9.1 5.0 96 6825
r 5.880024 9 0 cbr 500 ------- 3 9.1 5.0 97 6826
r 5.880624 0 1 cbr 1000 ------- 3 9.1 5.0 96 6825
r 5.881056 0 1 cbr 500 ------- 3 9.1 5.0 97 6826
r 5.881324 1 2 cbr 1000 ------- 3 9.1 5.0 96 6825
r 5.881594 1 2 cbr 500 ------- 3 9.1 5.0 97 6826
r 5.881704 2 3 cbr 1000 ------- 3 9.1 5.0 96 6825
r 5.881934 2 3 cbr 500 ------- 3 9.1 5.0 97 6826
r 5.882084 3 5 cbr 1000 ------- 3 9.1 5.0 96 6825
r 5.882274 3 5 cbr 500 ------- 3 9.1 5.0 97 6826
r 5.903342 15 0 cbr 1000 ------- 9 15.1 5.0 4 6884
r 5.903742 15 0 cbr 500 ------- 9 15.1 5.0 5 6885
r 5.904342 0 1 cbr 1000 ------- 9 15.1 5.0 4 6884
r 5.904742 0 1 cbr 500 ------- 9 15.1 5.0 5 6885
r 5.905042 1 2 cbr 1000 ------- 9 15.1 5.0 4 6884
r 5.905292 1 2 cbr 500 ------- 9 15.1 5.0 5 6885
r 5.905422 2 3 cbr 1000 ------- 9 15.1 5.0 4 6884
r 5.905632 2 3 cbr 500 ------- 9 15.1 5.0 5 6885
r 5.905802 3 5 cbr 1000 ------- 9 15.1 5.0 4 6884
r 5.905972 3 5 cbr 500 ------- 9 15.1 5.0 5 6885
r 5.90641 9 0 cbr 1000 ------- 3 9.1 5.0 98 6893
r 5.90681 9 0 cbr 500 ------- 3 9.1 5.0 99 6894
r 5.90741 0 1 cbr 1000 ------- 3 9.1 5.0 98 6893
r 5.907842 0 1 cbr 500 ------- 3 9.1 5.0 99 6894
r 5.90811 1 2 cbr 1000 ------- 3 9.1 5.0 98 6893
r 5.90838 1 2 cbr 500 ------- 3 9.1 5.0 99 6894
r 5.90849 2 3 cbr 1000 ------- 3 9.1 5.0 98 6893
r 5.90872 2 3 cbr 500 ------- 3 9.1 5.0 99 6894
r 5.90887 3 5 cbr 1000 ------- 3 9.1 5.0 98 6893
r 5.90906 3 5 cbr 500 ------- 3 9.1 5.0 99 6894
r 5.930128 15 0 cbr 1000 ------- 9 15.1 5.0 6 6953
r 5.930528 15 0 cbr 500 ------- 9 15.1 5.0 7 6954
r 5.931128 0 1 cbr 1000 ------- 9 15.1 5.0 6 6953
r 5.931528 0 1 cbr 500 ------- 9 15.1 5.0 7 6954
r 5.931828 1 2 cbr 1000 ------- 9 15.1 5.0 6 6953
r 5.932078 1 2 cbr 500 ------- 9 15.1 5.0 7 6954
r 5.932208 2 3 cbr 1000 ------- 9 15.1 5.0 6 6953
r 5.932418 2 3 cbr 500 ------- 9 15.1 5.0 7 6954
r 5.932588 3 5 cbr 1000 ------- 9 15.1 5.0 6 6953
r 5.932758 3 5 cbr 500 ------- 9 15.1 5.0 7 6954
r 5.933196 9 0 cbr 1000 ------- 3 9.1 5.0 100 6962
r 5.933596 9 0 cbr 500 ------- 3 9.1 5.0 101 6963
r 5.934196 0 1 cbr 1000 ------- 3 9.1 5.0 100 6962
r 5.934596 0 1 cbr 500 ------- 3 9.1 5.0 101 6963
r 5.934896 1 2 cbr 1000 ------- 3 9.1 5.0 100 6962
r 5.935146 1 2 cbr 500 ------- 3 9.1 5.0 101 6963
r 5.935276 2 3 cbr 1000 ------- 3 9.1 5.0 100 6962
r 5.935486 2 3 cbr 500 ------- 3 9.1 5.0 101 6963
r 5.935656 3 5 cbr 1000 ------- 3 9.1 5.0 100 6962
r 5.935826 3 5 cbr 500 ------- 3 9.1 5.0 101 6963
r 5.956914 15 0 cbr 1000 ------- 9 15.1 5.0 8 7021
r 5.957314 15 0 cbr 500 ------- 9 15.1 5.0 9 7022
r 5.957914 0 1 cbr 1000 ------- 9 15.1 5.0 8 7021
r 5.958346 0 1 cbr 500 ------- 9 15.1 5.0 9 7022
r 5.958614 1 2 cbr 1000 ------- 9 15.1 5.0 8 7021
r 5.958884 1 2 cbr 500 ------- 9 15.1 5.0 9 7022
r 5.958994 2 3 cbr 1000 ------- 9 15.1 5.0 8 7021
r 5.959224 2 3 cbr 500 ------- 9 15.1 5.0 9 7022
r 5.959374 3 5 cbr 1000 ------- 9 15.1 5.0 8 7021
r 5.959564 3 5 cbr 500 ------- 9 15.1 5.0 9 7022
r 5.959981 9 0 cbr 1000 ------- 3 9.1 5.0 102 7030
r 5.960381 9 0 cbr 500 ------- 3 9.1 5.0 103 7031
r 5.960981 0 1 cbr 1000 ------- 3 9.1 5.0 102 7030
r 5.961381 0 1 cbr 500 ------- 3 9.1 5.0 103 7031
r 5.961681 1 2 cbr 1000 ------- 3 9.1 5.0 102 7030
r 5.961931 1 2 cbr 500 ------- 3 9.1 5.0 103 7031
r 5.962061 2 3 cbr 1000 ------- 3 9.1 5.0 102 7030
r 5.962271 2 3 cbr 500 ------- 3 9.1 5.0 103 7031
r 5.962441 3 5 cbr 1000 ------- 3 9.1 5.0 102 7030
r 5.962611 3 5 cbr 500 ------- 3 9.1 5.0 103 7031
r 5.9837 15 0 cbr 1000 ------- 9 15.1 5.0 10 7089
r 5.9841 15 0 cbr 500 ------- 9 15.1 5.0 11 7090
r 5.9847 0 1 cbr 1000 ------- 9 15.1 5.0 10 7089
r 5.985132 0 1 cbr 500 ------- 9 15.1 5.0 11 7090
r 5.9854 1 2 cbr 1000 ------- 9 15.1 5.0 10 7089
r 5.98567 1 2 cbr 500 ------- 9 15.1 5.0 11 7090
r 5.98578 2 3 cbr 1000 ------- 9 15.1 5.0 10 7089
r 5.98601 2 3 cbr 500 ------- 9 15.1 5.0 11 7090
r 5.98616 3 5 cbr 1000 ------- 9 15.1 5.0 10 7089
r 5.98635 3 5 cbr 500 ------- 9 15.1 5.0 11 7090
r 5.986767 9 0 cbr 1000 ------- 3 9.1 5.0 104 7099
r 5.987167 9 0 cbr 500 ------- 3 9.1 5.0 105 7100
r 5.987767 0 1 cbr 1000 ------- 3 9.1 5.0 104 7099
r 5.988167 0 1 cbr 500 ------- 3 9.1 5.0 105 7100
r 5.988467 1 2 cbr 1000 ------- 3 9.1 5.0 104 7099
r 5.988717 1 2 cbr 500 ------- 3 9.1 5.0 105 7100
r 5.988847 2 3 cbr 1000 ------- 3 9.1 5.0 104 7099
r 5.989057 2 3 cbr 500 ------- 3 9.1 5.0 105 7100
r 5.989227 3 5 cbr 1000 ------- 3 9.1 5.0 104 7099
r 5.989397 3 5 cbr 500 ------- 3 9.1 5.0 105 7100
r 6.010485 15 0 cbr 1000 ------- 9 15.1 5.0 12 7158
r 6.010885 15 0 cbr 500 ------- 9 15.1 5.0 13 7159
r 6.011485 0 1 cbr 1000 ------- 9 15.1 5.0 12 7158
r 6.011917 0 1 cbr 500 ------- 9 15.1 5.0 13 7159
r 6.012185 1 2 cbr 1000 ------- 9 15.1 5.0 12 7158
r 6.012455 1 2 cbr 500 ------- 9 15.1 5.0 13 7159
r 6.012565 2 3 cbr 1000 ------- 9 15.1 5.0 12 7158
r 6.012795 2 3 cbr 500 ------- 9 15.1 5.0 13 7159
r 6.012945 3 5 cbr 1000 ------- 9 15.1 5.0 12 7158
r 6.013135 3 5 cbr 500 ------- 9 15.1 5.0 13 7159
r 6.013553 9 0 cbr 1000 ------- 3 9.1 5.0 106 7167
r 6.013953 9 0 cbr 500 ------- 3 9.1 5.0 107 7168
r 6.014553 0 1 cbr 1000 ------- 3 9.1 5.0 106 7167
r 6.014985 0 1 cbr 500 ------- 3 9.1 5.0 107 7168
r 6.015253 1 2 cbr 1000 ------- 3 9.1 5.0 106 7167
r 6.015523 1 2 cbr 500 ------- 3 9.1 5.0 107 7168
r 6.015633 2 3 cbr 1000 ------- 3 9.1 5.0 106 7167